<?xml version="1.0" encoding="UTF-8"?>

<!-- generated on 2026-05-24 04:07:47 by Eclipse SUMO GUI Version 1.18.0
<configuration xmlns:xsi="http://www.w3.org/2001/XMLSchema-instance" xsi:noNamespaceSchemaLocation="http://sumo.dlr.de/xsd/sumoConfiguration.xsd">

    <input>
        <net-file value="Scenario/3nodes/env/3nodes.net.xml"/>
        <route-files value="Scenario/3nodes/env/../routes/vehicle.rou.xml"/>
        <additional-files value="Scenario/3nodes/env/../add/tls.add.xml,Scenario/3nodes/env/ ../add/e2.add.xml"/>
    </input>

    <output>
        <netstate-dump value="Scenario/3nodes/env/../output/e2.netstate.xml"/>
        <netstate-dump.precision value="2"/>
        <summary-output value="Scenario/3nodes/env/../output/e2_summary.output.xml"/>
        <tripinfo-output value="/home/hoanganh/Project/TSC-CoLight/deploy_3nodes.tripinfo.xml"/>
        <tripinfo-output.write-unfinished value="true"/>
    </output>

    <time>
        <begin value="0"/>
        <end value="500"/>
        <step-length value="1.0"/>
    </time>

    <processing>
        <lateral-resolution value="0.2"/>
        <time-to-teleport value="-1"/>
        <waiting-time-memory value="10000"/>
        <max-depart-delay value="100000"/>
    </processing>

    <report>
        <no-warnings value="true"/>
        <no-step-log value="true"/>
    </report>

    <emissions>
        <device.emissions.probability value="1.0"/>
    </emissions>

    <traci_server>
        <remote-port value="40015"/>
    </traci_server>

    <random_number>
        <random value="true"/>
    </random_number>

    <gui_only>
        <quit-on-end value="true"/>
        <start value="true"/>
    </gui_only>

</configuration>
-->

<tripinfos xmlns:xsi="http://www.w3.org/2001/XMLSchema-instance" xsi:noNamespaceSchemaLocation="http://sumo.dlr.de/xsd/tripinfo_file.xsd">
    <tripinfo id="-E1__0__motorbike.0" depart="1.00" departLane="-E1_2" departPos="2.10" departPosLat="0.00" departSpeed="0.00" departDelay="0.16" arrival="23.00" arrivalLane="E2_1" arrivalPos="68.91" arrivalPosLat="0.00" arrivalSpeed="11.07" duration="22.00" routeLength="171.07" waitingTime="0.00" waitingCount="0" stopTime="0.00" timeLoss="6.15" rerouteNo="0" devices="tripinfo_-E1__0__motorbike.0 emissions_-E1__0__motorbike.0" vType="motorbike" speedFactor="1.04" vaporized="">
        <emissions CO_abs="2391.543136" CO2_abs="65657.198455" HC_abs="10.426275" PMx_abs="3.340552" NOx_abs="14.934198" fuel_abs="20944.156234" electricity_abs="0"/>
    </tripinfo>
    <tripinfo id="-E8__0__motorbike.0" depart="1.00" departLane="-E8_1" departPos="2.10" departPosLat="0.00" departSpeed="0.00" departDelay="0.71" arrival="24.00" arrivalLane="E9_1" arrivalPos="93.55" arrivalPosLat="0.00" arrivalSpeed="10.80" duration="23.00" routeLength="165.12" waitingTime="0.00" waitingCount="0" stopTime="0.00" timeLoss="6.81" rerouteNo="0" devices="tripinfo_-E8__0__motorbike.0 emissions_-E8__0__motorbike.0" vType="motorbike" speedFactor="1.17" vaporized="">
        <emissions CO_abs="2423.415680" CO2_abs="66579.775885" HC_abs="10.531603" PMx_abs="3.351973" NOx_abs="15.226685" fuel_abs="21238.441436" electricity_abs="0"/>
    </tripinfo>
    <tripinfo id="-E8__0__car.0" depart="3.00" departLane="-E8_2" departPos="4.60" departPosLat="0.00" departSpeed="0.00" departDelay="0.69" arrival="25.00" arrivalLane="E7_2" arrivalPos="79.84" arrivalPosLat="0.00" arrivalSpeed="9.75" duration="22.00" routeLength="167.94" waitingTime="0.00" waitingCount="0" stopTime="0.00" timeLoss="4.54" rerouteNo="0" devices="tripinfo_-E8__0__car.0 emissions_-E8__0__car.0" vType="car" speedFactor="0.88" vaporized="">
        <emissions CO_abs="1281.132057" CO2_abs="59741.561194" HC_abs="7.179012" PMx_abs="0.821423" NOx_abs="23.130792" fuel_abs="19055.292172" electricity_abs="0"/>
    </tripinfo>
    <tripinfo id="E0__0__motorbike.0" depart="4.00" departLane="E0_3" departPos="2.10" departPosLat="0.00" departSpeed="0.00" departDelay="0.42" arrival="28.00" arrivalLane="E1_1" arrivalPos="95.20" arrivalPosLat="0.00" arrivalSpeed="9.69" duration="24.00" routeLength="172.20" waitingTime="0.00" waitingCount="0" stopTime="0.00" timeLoss="5.92" rerouteNo="0" devices="tripinfo_E0__0__motorbike.0 emissions_E0__0__motorbike.0" vType="motorbike" speedFactor="0.92" vaporized="">
        <emissions CO_abs="2158.247699" CO2_abs="59082.201502" HC_abs="9.317151" PMx_abs="2.929505" NOx_abs="13.638959" fuel_abs="18846.765435" electricity_abs="0"/>
    </tripinfo>
    <tripinfo id="-E5__0__motorbike.0" depart="1.00" departLane="-E5_2" departPos="2.10" departPosLat="0.00" departSpeed="0.00" departDelay="0.91" arrival="31.00" arrivalLane="E8_1" arrivalPos="64.45" arrivalPosLat="0.00" arrivalSpeed="10.40" duration="30.00" routeLength="233.64" waitingTime="0.00" waitingCount="0" stopTime="0.00" timeLoss="8.35" rerouteNo="0" devices="tripinfo_-E5__0__motorbike.0 emissions_-E5__0__motorbike.0" vType="motorbike" speedFactor="1.12" vaporized="">
        <emissions CO_abs="2985.662842" CO2_abs="84368.917408" HC_abs="13.092681" PMx_abs="4.210643" NOx_abs="19.208201" fuel_abs="26913.035162" electricity_abs="0"/>
    </tripinfo>
    <tripinfo id="-E9__0__car.0" depart="6.00" departLane="-E9_1" departPos="4.60" departPosLat="0.00" departSpeed="0.00" departDelay="0.59" arrival="31.00" arrivalLane="E7_1" arrivalPos="79.84" arrivalPosLat="0.00" arrivalSpeed="9.44" duration="25.00" routeLength="179.31" waitingTime="0.00" waitingCount="0" stopTime="0.00" timeLoss="5.68" rerouteNo="0" devices="tripinfo_-E9__0__car.0 emissions_-E9__0__car.0" vType="car" speedFactor="0.89" vaporized="">
        <emissions CO_abs="1542.148052" CO2_abs="68177.097026" HC_abs="8.578455" PMx_abs="1.065807" NOx_abs="27.317976" fuel_abs="21745.806394" electricity_abs="0"/>
    </tripinfo>
    <tripinfo id="-E2__0__car.0" depart="1.00" departLane="-E2_2" departPos="4.60" departPosLat="0.00" departSpeed="0.00" departDelay="0.97" arrival="34.00" arrivalLane="-E0_2" arrivalPos="70.02" arrivalPosLat="0.00" arrivalSpeed="10.63" duration="33.00" routeLength="161.83" waitingTime="6.00" waitingCount="1" stopTime="0.00" timeLoss="18.14" rerouteNo="0" devices="tripinfo_-E2__0__car.0 emissions_-E2__0__car.0" vType="car" speedFactor="1.00" vaporized="">
        <emissions CO_abs="3379.496383" CO2_abs="103221.045213" HC_abs="17.780322" PMx_abs="1.961471" NOx_abs="43.519396" fuel_abs="32923.722182" electricity_abs="0"/>
    </tripinfo>
    <tripinfo id="-E2__0__car.2" depart="10.00" departLane="-E2_3" departPos="4.60" departPosLat="0.00" departSpeed="0.00" departDelay="0.69" arrival="35.00" arrivalLane="E1_3" arrivalPos="95.20" arrivalPosLat="0.00" arrivalSpeed="10.02" duration="25.00" routeLength="184.17" waitingTime="0.00" waitingCount="0" stopTime="0.00" timeLoss="6.83" rerouteNo="0" devices="tripinfo_-E2__0__car.2 emissions_-E2__0__car.2" vType="car" speedFactor="0.93" vaporized="">
        <emissions CO_abs="1639.355597" CO2_abs="71969.270217" HC_abs="9.122740" PMx_abs="1.206694" NOx_abs="29.385246" fuel_abs="22955.273310" electricity_abs="0"/>
    </tripinfo>
    <tripinfo id="E0__0__motorbike.2" depart="12.00" departLane="E0_2" departPos="2.10" departPosLat="0.00" departSpeed="0.00" departDelay="0.97" arrival="35.00" arrivalLane="E1_1" arrivalPos="95.20" arrivalPosLat="0.00" arrivalSpeed="10.05" duration="23.00" routeLength="172.20" waitingTime="0.00" waitingCount="0" stopTime="0.00" timeLoss="5.24" rerouteNo="0" devices="tripinfo_E0__0__motorbike.2 emissions_E0__0__motorbike.2" vType="motorbike" speedFactor="0.95" vaporized="">
        <emissions CO_abs="2126.415025" CO2_abs="56882.591047" HC_abs="9.203785" PMx_abs="2.928557" NOx_abs="12.967537" fuel_abs="18145.138305" electricity_abs="0"/>
    </tripinfo>
    <tripinfo id="-E5__0__motorbike.4" depart="15.00" departLane="-E5_2" departPos="2.10" departPosLat="0.00" departSpeed="0.00" departDelay="0.99" arrival="35.00" arrivalLane="E4_2" arrivalPos="78.40" arrivalPosLat="0.00" arrivalSpeed="10.52" duration="20.00" routeLength="165.35" waitingTime="0.00" waitingCount="0" stopTime="0.00" timeLoss="4.59" rerouteNo="0" devices="tripinfo_-E5__0__motorbike.4 emissions_-E5__0__motorbike.4" vType="motorbike" speedFactor="1.03" vaporized="">
        <emissions CO_abs="1608.246120" CO2_abs="49505.585457" HC_abs="7.073985" PMx_abs="2.223318" NOx_abs="11.585754" fuel_abs="15791.794588" electricity_abs="0"/>
    </tripinfo>
    <tripinfo id="-E2__0__car.1" depart="5.00" departLane="-E2_2" departPos="4.60" departPosLat="0.00" departSpeed="0.00" departDelay="0.46" arrival="36.00" arrivalLane="-E0_2" arrivalPos="70.02" arrivalPosLat="0.00" arrivalSpeed="10.65" duration="31.00" routeLength="161.83" waitingTime="4.00" waitingCount="1" stopTime="0.00" timeLoss="16.05" rerouteNo="0" devices="tripinfo_-E2__0__car.1 emissions_-E2__0__car.1" vType="car" speedFactor="1.18" vaporized="">
        <emissions CO_abs="2949.653837" CO2_abs="94959.930648" HC_abs="15.630601" PMx_abs="1.774890" NOx_abs="39.860480" fuel_abs="30288.661122" electricity_abs="0"/>
    </tripinfo>
    <tripinfo id="-E1__0__motorbike.3" depart="11.00" departLane="-E1_3" departPos="2.10" departPosLat="0.00" departSpeed="0.00" departDelay="0.18" arrival="36.00" arrivalLane="E2_1" arrivalPos="68.91" arrivalPosLat="0.00" arrivalSpeed="10.73" duration="25.00" routeLength="171.07" waitingTime="0.00" waitingCount="0" stopTime="0.00" timeLoss="8.64" rerouteNo="0" devices="tripinfo_-E1__0__motorbike.3 emissions_-E1__0__motorbike.3" vType="motorbike" speedFactor="1.08" vaporized="">
        <emissions CO_abs="2638.206587" CO2_abs="66805.186612" HC_abs="11.294717" PMx_abs="3.568409" NOx_abs="15.203056" fuel_abs="21310.417659" electricity_abs="0"/>
    </tripinfo>
    <tripinfo id="-E5__0__motorbike.1" depart="2.00" departLane="-E5_3" departPos="2.10" departPosLat="0.00" departSpeed="0.00" departDelay="1.81" arrival="38.00" arrivalLane="E9_2" arrivalPos="93.55" arrivalPosLat="0.00" arrivalSpeed="10.16" duration="36.00" routeLength="281.06" waitingTime="0.00" waitingCount="0" stopTime="0.00" timeLoss="7.94" rerouteNo="0" devices="tripinfo_-E5__0__motorbike.1 emissions_-E5__0__motorbike.1" vType="motorbike" speedFactor="0.92" vaporized="">
        <emissions CO_abs="2845.154126" CO2_abs="79024.170169" HC_abs="12.365915" PMx_abs="3.925837" NOx_abs="18.135920" fuel_abs="25208.099315" electricity_abs="0"/>
    </tripinfo>
    <tripinfo id="-E2__0__motorbike.0" depart="7.00" departLane="-E2_1" departPos="2.10" departPosLat="0.00" departSpeed="0.00" departDelay="1.01" arrival="38.00" arrivalLane="-E0_2" arrivalPos="70.02" arrivalPosLat="0.00" arrivalSpeed="10.65" duration="31.00" routeLength="164.33" waitingTime="3.00" waitingCount="1" stopTime="0.00" timeLoss="15.88" rerouteNo="0" devices="tripinfo_-E2__0__motorbike.0 emissions_-E2__0__motorbike.0" vType="motorbike" speedFactor="1.07" vaporized="">
        <emissions CO_abs="3952.853897" CO2_abs="76608.492749" HC_abs="16.003376" PMx_abs="4.786462" NOx_abs="17.698480" fuel_abs="24437.785845" electricity_abs="0"/>
    </tripinfo>
    <tripinfo id="-E4__0__car.0" depart="4.00" departLane="-E4_3" departPos="4.60" departPosLat="0.00" departSpeed="0.00" departDelay="0.53" arrival="40.00" arrivalLane="-E0_1" arrivalPos="70.02" arrivalPosLat="0.00" arrivalSpeed="9.57" duration="36.00" routeLength="245.32" waitingTime="0.00" waitingCount="0" stopTime="0.00" timeLoss="9.42" rerouteNo="0" devices="tripinfo_-E4__0__car.0 emissions_-E4__0__car.0" vType="car" speedFactor="0.90" vaporized="">
        <emissions CO_abs="2210.224430" CO2_abs="94604.103387" HC_abs="12.246009" PMx_abs="1.611317" NOx_abs="38.840104" fuel_abs="30174.868215" electricity_abs="0"/>
    </tripinfo>
    <tripinfo id="-E2__0__car.3" depart="16.00" departLane="-E2_3" departPos="4.60" departPosLat="0.00" departSpeed="0.00" departDelay="0.92" arrival="40.00" arrivalLane="E1_3" arrivalPos="95.20" arrivalPosLat="0.00" arrivalSpeed="9.63" duration="24.00" routeLength="184.17" waitingTime="0.00" waitingCount="0" stopTime="0.00" timeLoss="4.95" rerouteNo="0" devices="tripinfo_-E2__0__car.3 emissions_-E2__0__car.3" vType="car" speedFactor="0.90" vaporized="">
        <emissions CO_abs="1420.203333" CO2_abs="65410.327297" HC_abs="7.973743" PMx_abs="1.083440" NOx_abs="26.592398" fuel_abs="20863.210002" electricity_abs="0"/>
    </tripinfo>
    <tripinfo id="-E1__0__motorbike.4" depart="16.00" departLane="-E1_1" departPos="2.10" departPosLat="0.00" departSpeed="0.00" departDelay="0.32" arrival="40.00" arrivalLane="E2_1" arrivalPos="68.91" arrivalPosLat="0.00" arrivalSpeed="9.79" duration="24.00" routeLength="171.07" waitingTime="0.00" waitingCount="0" stopTime="0.00" timeLoss="5.36" rerouteNo="0" devices="tripinfo_-E1__0__motorbike.4 emissions_-E1__0__motorbike.4" vType="motorbike" speedFactor="0.90" vaporized="">
        <emissions CO_abs="2122.318546" CO2_abs="56370.488122" HC_abs="9.119940" PMx_abs="2.865152" NOx_abs="12.972742" fuel_abs="17981.772167" electricity_abs="0"/>
    </tripinfo>
    <tripinfo id="-E8__0__motorbike.3" depart="18.00" departLane="-E8_2" departPos="2.10" departPosLat="0.00" departSpeed="0.00" departDelay="0.14" arrival="41.00" arrivalLane="E9_1" arrivalPos="93.55" arrivalPosLat="0.00" arrivalSpeed="10.61" duration="23.00" routeLength="165.12" waitingTime="0.00" waitingCount="0" stopTime="0.00" timeLoss="6.57" rerouteNo="0" devices="tripinfo_-E8__0__motorbike.3 emissions_-E8__0__motorbike.3" vType="motorbike" speedFactor="0.99" vaporized="">
        <emissions CO_abs="2401.600155" CO2_abs="69168.739301" HC_abs="10.522930" PMx_abs="3.357428" NOx_abs="15.884529" fuel_abs="22064.255617" electricity_abs="0"/>
    </tripinfo>
    <tripinfo id="-E9__0__car.2" depart="18.00" departLane="-E9_3" departPos="4.60" departPosLat="0.00" departSpeed="0.00" departDelay="0.91" arrival="43.00" arrivalLane="E7_1" arrivalPos="79.84" arrivalPosLat="0.00" arrivalSpeed="10.47" duration="25.00" routeLength="179.31" waitingTime="0.00" waitingCount="0" stopTime="0.00" timeLoss="7.41" rerouteNo="0" devices="tripinfo_-E9__0__car.2 emissions_-E9__0__car.2" vType="car" speedFactor="0.97" vaporized="">
        <emissions CO_abs="1639.268816" CO2_abs="74597.480973" HC_abs="9.181430" PMx_abs="1.229063" NOx_abs="30.211531" fuel_abs="23793.562110" electricity_abs="0"/>
    </tripinfo>
    <tripinfo id="-E8__0__motorbike.4" depart="20.00" departLane="-E8_1" departPos="2.10" departPosLat="0.00" departSpeed="0.00" departDelay="0.44" arrival="43.00" arrivalLane="E9_1" arrivalPos="93.55" arrivalPosLat="0.00" arrivalSpeed="10.95" duration="23.00" routeLength="165.12" waitingTime="0.00" waitingCount="0" stopTime="0.00" timeLoss="6.97" rerouteNo="0" devices="tripinfo_-E8__0__motorbike.4 emissions_-E8__0__motorbike.4" vType="motorbike" speedFactor="1.02" vaporized="">
        <emissions CO_abs="2417.765386" CO2_abs="65458.179007" HC_abs="10.508747" PMx_abs="3.360342" NOx_abs="14.884387" fuel_abs="20880.682763" electricity_abs="0"/>
    </tripinfo>
    <tripinfo id="-E5__0__motorbike.2" depart="2.00" departLane="-E5_1" departPos="2.10" departPosLat="0.00" departSpeed="0.00" departDelay="0.28" arrival="44.00" arrivalLane="-E0_1" arrivalPos="70.02" arrivalPosLat="0.00" arrivalSpeed="10.56" duration="42.00" routeLength="246.84" waitingTime="3.00" waitingCount="1" stopTime="0.00" timeLoss="18.50" rerouteNo="0" devices="tripinfo_-E5__0__motorbike.2 emissions_-E5__0__motorbike.2" vType="motorbike" speedFactor="1.00" vaporized="">
        <emissions CO_abs="4751.615052" CO2_abs="100761.386091" HC_abs="19.533978" PMx_abs="5.917366" NOx_abs="23.261120" fuel_abs="32142.351201" electricity_abs="0"/>
    </tripinfo>
    <tripinfo id="-E5__0__car.0" depart="5.00" departLane="-E5_3" departPos="4.60" departPosLat="0.00" departSpeed="0.00" departDelay="0.16" arrival="47.00" arrivalLane="-E0_1" arrivalPos="70.02" arrivalPosLat="0.00" arrivalSpeed="10.53" duration="42.00" routeLength="244.34" waitingTime="2.00" waitingCount="1" stopTime="0.00" timeLoss="18.55" rerouteNo="0" devices="tripinfo_-E5__0__car.0 emissions_-E5__0__car.0" vType="car" speedFactor="0.98" vaporized="">
        <emissions CO_abs="3492.961394" CO2_abs="118329.701969" HC_abs="18.638149" PMx_abs="2.146214" NOx_abs="49.353730" fuel_abs="37742.690737" electricity_abs="0"/>
    </tripinfo>
    <tripinfo id="-E9__0__motorbike.4" depart="20.00" departLane="-E9_2" departPos="2.10" departPosLat="0.00" departSpeed="0.00" departDelay="0.89" arrival="47.00" arrivalLane="E7_1" arrivalPos="79.84" arrivalPosLat="0.00" arrivalSpeed="10.55" duration="27.00" routeLength="181.81" waitingTime="0.00" waitingCount="0" stopTime="0.00" timeLoss="9.81" rerouteNo="0" devices="tripinfo_-E9__0__motorbike.4 emissions_-E9__0__motorbike.4" vType="motorbike" speedFactor="1.00" vaporized="">
        <emissions CO_abs="2862.082147" CO2_abs="72398.693946" HC_abs="12.231581" PMx_abs="3.851560" NOx_abs="16.520425" fuel_abs="23094.705998" electricity_abs="0"/>
    </tripinfo>
    <tripinfo id="-E8__0__motorbike.5" depart="24.00" departLane="-E8_3" departPos="2.10" departPosLat="0.00" departSpeed="0.00" departDelay="0.00" arrival="48.00" arrivalLane="E9_1" arrivalPos="93.55" arrivalPosLat="0.00" arrivalSpeed="8.46" duration="24.00" routeLength="165.12" waitingTime="0.00" waitingCount="0" stopTime="0.00" timeLoss="5.08" rerouteNo="0" devices="tripinfo_-E8__0__motorbike.5 emissions_-E8__0__motorbike.5" vType="motorbike" speedFactor="0.82" vaporized="">
        <emissions CO_abs="1956.529856" CO2_abs="49656.243519" HC_abs="8.287384" PMx_abs="2.560997" NOx_abs="11.513423" fuel_abs="15840.000428" electricity_abs="0"/>
    </tripinfo>
    <tripinfo id="-E9__0__motorbike.0" depart="1.00" departLane="-E9_3" departPos="2.10" departPosLat="0.00" departSpeed="0.00" departDelay="0.98" arrival="51.00" arrivalLane="E8_3" arrivalPos="64.45" arrivalPosLat="0.00" arrivalSpeed="10.88" duration="50.00" routeLength="180.65" waitingTime="24.00" waitingCount="1" stopTime="0.00" timeLoss="33.19" rerouteNo="0" devices="tripinfo_-E9__0__motorbike.0 emissions_-E9__0__motorbike.0" vType="motorbike" speedFactor="1.22" vaporized="">
        <emissions CO_abs="7295.287832" CO2_abs="103611.224010" HC_abs="28.136307" PMx_abs="8.005284" NOx_abs="24.338772" fuel_abs="33051.919104" electricity_abs="0"/>
    </tripinfo>
    <tripinfo id="E0__0__car.0" depart="7.00" departLane="E0_3" departPos="4.60" departPosLat="0.00" departSpeed="0.00" departDelay="0.46" arrival="51.00" arrivalLane="E2_2" arrivalPos="68.91" arrivalPosLat="0.00" arrivalSpeed="10.80" duration="44.00" routeLength="161.66" waitingTime="18.00" waitingCount="1" stopTime="0.00" timeLoss="28.98" rerouteNo="0" devices="tripinfo_E0__0__car.0 emissions_E0__0__car.0" vType="car" speedFactor="1.01" vaporized="">
        <emissions CO_abs="5205.115022" CO2_abs="133369.478155" HC_abs="26.809653" PMx_abs="2.749886" NOx_abs="57.578544" fuel_abs="42540.253860" electricity_abs="0"/>
    </tripinfo>
    <tripinfo id="-E9__0__motorbike.1" depart="2.00" departLane="-E9_2" departPos="2.10" departPosLat="0.00" departSpeed="0.00" departDelay="0.52" arrival="52.00" arrivalLane="E8_3" arrivalPos="64.45" arrivalPosLat="0.00" arrivalSpeed="10.94" duration="50.00" routeLength="180.65" waitingTime="23.00" waitingCount="1" stopTime="0.00" timeLoss="33.53" rerouteNo="0" devices="tripinfo_-E9__0__motorbike.1 emissions_-E9__0__motorbike.1" vType="motorbike" speedFactor="1.06" vaporized="">
        <emissions CO_abs="7237.462530" CO2_abs="101865.116437" HC_abs="27.852820" PMx_abs="7.898356" NOx_abs="23.992289" fuel_abs="32494.926483" electricity_abs="0"/>
    </tripinfo>
    <tripinfo id="-E4__0__motorbike.0" depart="2.00" departLane="-E4_2" departPos="2.10" departPosLat="0.00" departSpeed="0.00" departDelay="0.46" arrival="52.00" arrivalLane="E5_2" arrivalPos="61.71" arrivalPosLat="0.00" arrivalSpeed="10.39" duration="50.00" routeLength="165.46" waitingTime="23.00" waitingCount="1" stopTime="0.00" timeLoss="33.67" rerouteNo="0" devices="tripinfo_-E4__0__motorbike.0 emissions_-E4__0__motorbike.0" vType="motorbike" speedFactor="0.96" vaporized="">
        <emissions CO_abs="7330.126918" CO2_abs="101664.897870" HC_abs="28.175661" PMx_abs="7.987007" NOx_abs="23.920355" fuel_abs="32431.080719" electricity_abs="0"/>
    </tripinfo>
    <tripinfo id="-E4__0__motorbike.1" depart="4.00" departLane="-E4_2" departPos="2.10" departPosLat="0.00" departSpeed="0.00" departDelay="0.57" arrival="52.00" arrivalLane="E5_2" arrivalPos="61.71" arrivalPosLat="1.15" arrivalSpeed="11.08" duration="48.00" routeLength="165.46" waitingTime="20.00" waitingCount="2" stopTime="0.00" timeLoss="32.52" rerouteNo="0" devices="tripinfo_-E4__0__motorbike.1 emissions_-E4__0__motorbike.1" vType="motorbike" speedFactor="1.07" vaporized="">
        <emissions CO_abs="7187.144992" CO2_abs="105208.686305" HC_abs="27.814601" PMx_abs="7.936941" NOx_abs="24.706275" fuel_abs="33561.466754" electricity_abs="0"/>
    </tripinfo>
    <tripinfo id="-E7__0__motorbike.1" depart="17.00" departLane="-E7_1" departPos="2.10" departPosLat="0.00" departSpeed="0.00" departDelay="0.74" arrival="52.00" arrivalLane="E4_1" arrivalPos="78.40" arrivalPosLat="0.00" arrivalSpeed="11.07" duration="35.00" routeLength="265.44" waitingTime="0.00" waitingCount="0" stopTime="0.00" timeLoss="9.51" rerouteNo="0" devices="tripinfo_-E7__0__motorbike.1 emissions_-E7__0__motorbike.1" vType="motorbike" speedFactor="1.13" vaporized="">
        <emissions CO_abs="3242.107849" CO2_abs="92028.005981" HC_abs="14.234605" PMx_abs="4.582771" NOx_abs="20.945792" fuel_abs="29356.220412" electricity_abs="0"/>
    </tripinfo>
    <tripinfo id="E0__0__motorbike.5" depart="28.00" departLane="E0_2" departPos="2.10" departPosLat="0.00" departSpeed="0.00" departDelay="1.30" arrival="52.00" arrivalLane="E1_1" arrivalPos="95.20" arrivalPosLat="0.00" arrivalSpeed="10.78" duration="24.00" routeLength="172.20" waitingTime="0.00" waitingCount="0" stopTime="0.00" timeLoss="7.27" rerouteNo="0" devices="tripinfo_E0__0__motorbike.5 emissions_E0__0__motorbike.5" vType="motorbike" speedFactor="1.08" vaporized="">
        <emissions CO_abs="2490.492145" CO2_abs="68035.108263" HC_abs="10.785306" PMx_abs="3.413357" NOx_abs="15.618947" fuel_abs="21702.676160" electricity_abs="0"/>
    </tripinfo>
    <tripinfo id="E0__0__car.1" depart="8.00" departLane="E0_1" departPos="4.60" departPosLat="0.00" departSpeed="0.00" departDelay="1.20" arrival="53.00" arrivalLane="E2_2" arrivalPos="68.91" arrivalPosLat="0.00" arrivalSpeed="10.73" duration="45.00" routeLength="161.66" waitingTime="16.00" waitingCount="1" stopTime="0.00" timeLoss="30.25" rerouteNo="0" devices="tripinfo_E0__0__car.1 emissions_E0__0__car.1" vType="car" speedFactor="1.20" vaporized="">
        <emissions CO_abs="5138.941998" CO2_abs="129391.922182" HC_abs="26.407363" PMx_abs="2.647911" NOx_abs="55.814289" fuel_abs="41271.624830" electricity_abs="0"/>
    </tripinfo>
    <tripinfo id="-E4__0__car.2" depart="13.00" departLane="-E4_2" departPos="4.60" departPosLat="0.00" departSpeed="0.00" departDelay="0.59" arrival="54.00" arrivalLane="E5_2" arrivalPos="61.71" arrivalPosLat="0.00" arrivalSpeed="10.13" duration="41.00" routeLength="162.96" waitingTime="14.00" waitingCount="1" stopTime="0.00" timeLoss="24.74" rerouteNo="0" devices="tripinfo_-E4__0__car.2 emissions_-E4__0__car.2" vType="car" speedFactor="0.93" vaporized="">
        <emissions CO_abs="4446.460735" CO2_abs="117152.896168" HC_abs="22.964949" PMx_abs="2.338624" NOx_abs="50.163771" fuel_abs="37367.725608" electricity_abs="0"/>
    </tripinfo>
    <tripinfo id="E0__0__car.2" depart="13.00" departLane="E0_1" departPos="4.60" departPosLat="0.00" departSpeed="0.00" departDelay="0.68" arrival="55.00" arrivalLane="E2_2" arrivalPos="68.91" arrivalPosLat="0.00" arrivalSpeed="10.59" duration="42.00" routeLength="161.66" waitingTime="13.00" waitingCount="1" stopTime="0.00" timeLoss="26.99" rerouteNo="0" devices="tripinfo_E0__0__car.2 emissions_E0__0__car.2" vType="car" speedFactor="1.00" vaporized="">
        <emissions CO_abs="4575.297916" CO2_abs="120979.624466" HC_abs="23.642432" PMx_abs="2.419486" NOx_abs="51.786455" fuel_abs="38588.307678" electricity_abs="0"/>
    </tripinfo>
    <tripinfo id="-E9__0__car.1" depart="10.00" departLane="-E9_2" departPos="4.60" departPosLat="0.00" departSpeed="0.00" departDelay="0.41" arrival="56.00" arrivalLane="E8_3" arrivalPos="64.45" arrivalPosLat="0.00" arrivalSpeed="9.46" duration="46.00" routeLength="178.15" waitingTime="15.00" waitingCount="1" stopTime="0.00" timeLoss="26.85" rerouteNo="0" devices="tripinfo_-E9__0__car.1 emissions_-E9__0__car.1" vType="car" speedFactor="0.88" vaporized="">
        <emissions CO_abs="4837.907728" CO2_abs="124007.457946" HC_abs="24.903366" PMx_abs="2.483021" NOx_abs="53.181336" fuel_abs="39554.166133" electricity_abs="0"/>
    </tripinfo>
    <tripinfo id="-E4__0__car.1" depart="14.00" departLane="-E4_1" departPos="4.60" departPosLat="0.00" departSpeed="0.00" departDelay="1.71" arrival="56.00" arrivalLane="E5_2" arrivalPos="61.71" arrivalPosLat="0.00" arrivalSpeed="9.91" duration="42.00" routeLength="162.96" waitingTime="12.00" waitingCount="1" stopTime="0.00" timeLoss="25.19" rerouteNo="0" devices="tripinfo_-E4__0__car.1 emissions_-E4__0__car.1" vType="car" speedFactor="0.91" vaporized="">
        <emissions CO_abs="4366.020969" CO2_abs="118838.390091" HC_abs="22.630017" PMx_abs="2.312612" NOx_abs="50.513215" fuel_abs="37905.315858" electricity_abs="0"/>
    </tripinfo>
    <tripinfo id="-E9__0__motorbike.2" depart="10.00" departLane="-E9_3" departPos="2.10" departPosLat="0.00" departSpeed="0.00" departDelay="0.41" arrival="57.00" arrivalLane="E8_3" arrivalPos="64.45" arrivalPosLat="-0.45" arrivalSpeed="10.13" duration="47.00" routeLength="180.65" waitingTime="14.00" waitingCount="2" stopTime="0.00" timeLoss="30.44" rerouteNo="0" devices="tripinfo_-E9__0__motorbike.2 emissions_-E9__0__motorbike.2" vType="motorbike" speedFactor="1.08" vaporized="">
        <emissions CO_abs="6674.067643" CO2_abs="106116.078120" HC_abs="26.109621" PMx_abs="7.529863" NOx_abs="24.847988" fuel_abs="33850.827025" electricity_abs="0"/>
    </tripinfo>
    <tripinfo id="E0__0__motorbike.3" depart="16.00" departLane="E0_2" departPos="2.10" departPosLat="0.00" departSpeed="0.00" departDelay="0.07" arrival="57.00" arrivalLane="E2_2" arrivalPos="68.91" arrivalPosLat="0.00" arrivalSpeed="10.38" duration="41.00" routeLength="164.16" waitingTime="13.00" waitingCount="2" stopTime="0.00" timeLoss="25.21" rerouteNo="0" devices="tripinfo_E0__0__motorbike.3 emissions_E0__0__motorbike.3" vType="motorbike" speedFactor="0.97" vaporized="">
        <emissions CO_abs="5630.185080" CO2_abs="86083.244179" HC_abs="21.894745" PMx_abs="6.269974" NOx_abs="20.229533" fuel_abs="27460.418388" electricity_abs="0"/>
    </tripinfo>
    <tripinfo id="-E4__0__car.4" depart="17.00" departLane="-E4_1" departPos="4.60" departPosLat="0.00" departSpeed="0.00" departDelay="0.27" arrival="57.00" arrivalLane="E5_2" arrivalPos="61.71" arrivalPosLat="0.00" arrivalSpeed="10.22" duration="40.00" routeLength="162.96" waitingTime="11.00" waitingCount="1" stopTime="0.00" timeLoss="24.30" rerouteNo="0" devices="tripinfo_-E4__0__car.4 emissions_-E4__0__car.4" vType="car" speedFactor="0.94" vaporized="">
        <emissions CO_abs="4261.052406" CO2_abs="112983.936807" HC_abs="22.020311" PMx_abs="2.234506" NOx_abs="48.274066" fuel_abs="36037.975714" electricity_abs="0"/>
    </tripinfo>
    <tripinfo id="-E9__0__motorbike.8" depart="31.00" departLane="-E9_1" departPos="2.10" departPosLat="0.00" departSpeed="0.00" departDelay="0.85" arrival="57.00" arrivalLane="E8_3" arrivalPos="64.45" arrivalPosLat="1.05" arrivalSpeed="9.64" duration="26.00" routeLength="180.65" waitingTime="0.00" waitingCount="0" stopTime="0.00" timeLoss="8.04" rerouteNo="0" devices="tripinfo_-E9__0__motorbike.8 emissions_-E9__0__motorbike.8" vType="motorbike" speedFactor="0.93" vaporized="">
        <emissions CO_abs="2287.247479" CO2_abs="60159.171523" HC_abs="9.770459" PMx_abs="3.040540" NOx_abs="13.930934" fuel_abs="19190.331457" electricity_abs="0"/>
    </tripinfo>
    <tripinfo id="-E9__0__motorbike.6" depart="24.00" departLane="-E9_1" departPos="2.10" departPosLat="0.00" departSpeed="0.00" departDelay="0.62" arrival="58.00" arrivalLane="E8_3" arrivalPos="64.45" arrivalPosLat="0.00" arrivalSpeed="10.06" duration="34.00" routeLength="180.65" waitingTime="2.00" waitingCount="1" stopTime="0.00" timeLoss="17.69" rerouteNo="0" devices="tripinfo_-E9__0__motorbike.6 emissions_-E9__0__motorbike.6" vType="motorbike" speedFactor="1.11" vaporized="">
        <emissions CO_abs="4039.532683" CO2_abs="79649.473892" HC_abs="16.427496" PMx_abs="4.948366" NOx_abs="18.308216" fuel_abs="25407.862038" electricity_abs="0"/>
    </tripinfo>
    <tripinfo id="-E1__0__motorbike.8" depart="36.00" departLane="-E1_3" departPos="2.10" departPosLat="0.00" departSpeed="0.00" departDelay="0.09" arrival="58.00" arrivalLane="E2_1" arrivalPos="68.91" arrivalPosLat="0.00" arrivalSpeed="10.42" duration="22.00" routeLength="171.07" waitingTime="0.00" waitingCount="0" stopTime="0.00" timeLoss="5.68" rerouteNo="0" devices="tripinfo_-E1__0__motorbike.8 emissions_-E1__0__motorbike.8" vType="motorbike" speedFactor="1.02" vaporized="">
        <emissions CO_abs="2076.764622" CO2_abs="60707.690417" HC_abs="9.105063" PMx_abs="2.895778" NOx_abs="14.003036" fuel_abs="19365.236706" electricity_abs="0"/>
    </tripinfo>
    <tripinfo id="-E4__0__motorbike.4" depart="21.00" departLane="-E4_1" departPos="2.10" departPosLat="0.00" departSpeed="0.00" departDelay="4.54" arrival="59.00" arrivalLane="E5_2" arrivalPos="61.71" arrivalPosLat="1.05" arrivalSpeed="10.61" duration="38.00" routeLength="165.46" waitingTime="10.00" waitingCount="1" stopTime="0.00" timeLoss="22.56" rerouteNo="0" devices="tripinfo_-E4__0__motorbike.4 emissions_-E4__0__motorbike.4" vType="motorbike" speedFactor="1.02" vaporized="">