<?xml version="1.0" encoding="UTF-8"?>

<!-- generated on 2026-06-21 12:41:38 by Eclipse SUMO GUI Version 1.18.0
<configuration xmlns:xsi="http://www.w3.org/2001/XMLSchema-instance" xsi:noNamespaceSchemaLocation="http://sumo.dlr.de/xsd/sumoConfiguration.xsd">

    <input>
        <net-file value="Scenario/4nodes/env/4nodes.net.xml"/>
        <route-files value="Scenario/4nodes/env/../routes/vehicle.rou.xml"/>
        <additional-files value="Scenario/4nodes/env/../add/tls.add.xml,Scenario/4nodes/env/ ../add/e2.add.xml"/>
    </input>

    <output>
        <netstate-dump value="Scenario/4nodes/env/../output/e2.netstate.xml"/>
        <netstate-dump.precision value="2"/>
        <summary-output value="Scenario/4nodes/env/../output/e2_summary.output.xml"/>
        <tripinfo-output value="/home/hoanganh/Project/TSC-CoLight/deploy_4nodes_large.tripinfo.xml"/>
        <tripinfo-output.write-unfinished value="true"/>
    </output>

    <time>
        <begin value="0"/>
        <end value="504"/>
        <step-length value="1.0"/>
    </time>

    <processing>
        <lateral-resolution value="0.2"/>
        <time-to-teleport value="-1"/>
        <waiting-time-memory value="10000"/>
        <max-depart-delay value="100000"/>
    </processing>

    <report>
        <no-warnings value="true"/>
        <no-step-log value="true"/>
    </report>

    <emissions>
        <device.emissions.probability value="1.0"/>
    </emissions>

    <traci_server>
        <remote-port value="34569"/>
    </traci_server>

    <random_number>
        <random value="true"/>
    </random_number>

    <gui_only>
        <quit-on-end value="true"/>
        <start value="true"/>
    </gui_only>

</configuration>
-->

<tripinfos xmlns:xsi="http://www.w3.org/2001/XMLSchema-instance" xsi:noNamespaceSchemaLocation="http://sumo.dlr.de/xsd/tripinfo_file.xsd">
    <tripinfo id="-E5__0__motorbike.0" depart="1.00" departLane="-E5_2" departPos="2.10" departPosLat="0.00" departSpeed="0.00" departDelay="0.98" arrival="37.00" arrivalLane="E4_1" arrivalPos="143.61" arrivalPosLat="0.00" arrivalSpeed="10.39" duration="36.00" routeLength="320.87" waitingTime="0.00" waitingCount="0" stopTime="0.00" timeLoss="6.67" rerouteNo="0" devices="tripinfo_-E5__0__motorbike.0 emissions_-E5__0__motorbike.0" vType="motorbike" speedFactor="1.04" vaporized="">
        <emissions CO_abs="2502.231987" CO2_abs="80912.176890" HC_abs="11.213140" PMx_abs="3.604115" NOx_abs="18.744884" fuel_abs="25810.184937" electricity_abs="0"/>
    </tripinfo>
    <tripinfo id="-E5__0__motorbike.4" depart="9.00" departLane="-E5_1" departPos="2.10" departPosLat="0.00" departSpeed="0.00" departDelay="0.54" arrival="45.00" arrivalLane="E4_1" arrivalPos="143.61" arrivalPosLat="0.00" arrivalSpeed="10.70" duration="36.00" routeLength="320.87" waitingTime="0.00" waitingCount="0" stopTime="0.00" timeLoss="6.31" rerouteNo="0" devices="tripinfo_-E5__0__motorbike.4 emissions_-E5__0__motorbike.4" vType="motorbike" speedFactor="1.07" vaporized="">
        <emissions CO_abs="2510.782519" CO2_abs="79503.668507" HC_abs="11.269582" PMx_abs="3.661211" NOx_abs="18.229182" fuel_abs="25360.932579" electricity_abs="0"/>
    </tripinfo>
    <tripinfo id="E0__0__motorbike.1" depart="7.00" departLane="E0_3" departPos="2.10" departPosLat="0.00" departSpeed="0.00" departDelay="0.46" arrival="46.00" arrivalLane="E1_2" arrivalPos="164.31" arrivalPosLat="0.00" arrivalSpeed="10.72" duration="39.00" routeLength="302.09" waitingTime="1.00" waitingCount="1" stopTime="0.00" timeLoss="10.45" rerouteNo="0" devices="tripinfo_E0__0__motorbike.1 emissions_E0__0__motorbike.1" vType="motorbike" speedFactor="1.01" vaporized="">
        <emissions CO_abs="3141.409706" CO2_abs="86947.653558" HC_abs="13.677577" PMx_abs="4.353751" NOx_abs="19.910041" fuel_abs="27735.602334" electricity_abs="0"/>
    </tripinfo>
    <tripinfo id="E0__0__motorbike.2" depart="8.00" departLane="E0_2" departPos="2.10" departPosLat="0.00" departSpeed="0.00" departDelay="1.20" arrival="48.00" arrivalLane="E1_1" arrivalPos="164.31" arrivalPosLat="0.00" arrivalSpeed="9.72" duration="40.00" routeLength="302.09" waitingTime="0.00" waitingCount="0" stopTime="0.00" timeLoss="8.00" rerouteNo="0" devices="tripinfo_E0__0__motorbike.2 emissions_E0__0__motorbike.2" vType="motorbike" speedFactor="0.88" vaporized="">
        <emissions CO_abs="3018.719885" CO2_abs="82974.897636" HC_abs="12.928078" PMx_abs="3.986300" NOx_abs="19.456970" fuel_abs="26468.287584" electricity_abs="0"/>
    </tripinfo>
    <tripinfo id="-E5__0__motorbike.6" depart="11.00" departLane="-E5_3" departPos="2.10" departPosLat="0.00" departSpeed="0.00" departDelay="1.41" arrival="50.00" arrivalLane="E4_2" arrivalPos="143.61" arrivalPosLat="0.00" arrivalSpeed="10.48" duration="39.00" routeLength="320.87" waitingTime="0.00" waitingCount="0" stopTime="0.00" timeLoss="7.97" rerouteNo="0" devices="tripinfo_-E5__0__motorbike.6 emissions_-E5__0__motorbike.6" vType="motorbike" speedFactor="0.97" vaporized="">
        <emissions CO_abs="2730.690251" CO2_abs="76859.718524" HC_abs="11.917107" PMx_abs="3.799587" NOx_abs="17.608580" fuel_abs="24517.646369" electricity_abs="0"/>
    </tripinfo>
    <tripinfo id="-E9__0__car.0" depart="6.00" departLane="-E9_3" departPos="4.60" departPosLat="0.00" departSpeed="0.00" departDelay="1.58" arrival="54.00" arrivalLane="E8_2" arrivalPos="201.31" arrivalPosLat="0.00" arrivalSpeed="10.48" duration="48.00" routeLength="418.76" waitingTime="0.00" waitingCount="0" stopTime="0.00" timeLoss="8.12" rerouteNo="0" devices="tripinfo_-E9__0__car.0 emissions_-E9__0__car.0" vType="car" speedFactor="0.97" vaporized="">
        <emissions CO_abs="2128.962165" CO2_abs="121719.570895" HC_abs="12.459649" PMx_abs="1.715760" NOx_abs="47.200490" fuel_abs="38823.592078" electricity_abs="0"/>
    </tripinfo>
    <tripinfo id="-E9__0__motorbike.1" depart="3.00" departLane="-E9_2" departPos="2.10" departPosLat="0.00" departSpeed="0.00" departDelay="0.27" arrival="55.00" arrivalLane="E8_1" arrivalPos="201.31" arrivalPosLat="0.00" arrivalSpeed="9.35" duration="52.00" routeLength="421.26" waitingTime="0.00" waitingCount="0" stopTime="0.00" timeLoss="6.14" rerouteNo="0" devices="tripinfo_-E9__0__motorbike.1 emissions_-E9__0__motorbike.1" vType="motorbike" speedFactor="0.85" vaporized="">
        <emissions CO_abs="2761.030355" CO2_abs="89050.746354" HC_abs="12.182669" PMx_abs="3.803928" NOx_abs="21.039265" fuel_abs="28406.296075" electricity_abs="0"/>
    </tripinfo>
    <tripinfo id="E0__0__car.3" depart="13.00" departLane="E0_2" departPos="4.60" departPosLat="0.00" departSpeed="0.00" departDelay="5.29" arrival="56.00" arrivalLane="E1_2" arrivalPos="164.31" arrivalPosLat="0.00" arrivalSpeed="10.98" duration="43.00" routeLength="299.59" waitingTime="3.00" waitingCount="2" stopTime="0.00" timeLoss="14.72" rerouteNo="0" devices="tripinfo_E0__0__car.3 emissions_E0__0__car.3" vType="car" speedFactor="1.07" vaporized="">
        <emissions CO_abs="3048.745888" CO2_abs="118664.567552" HC_abs="16.595748" PMx_abs="1.930910" NOx_abs="47.664935" fuel_abs="37849.497218" electricity_abs="0"/>
    </tripinfo>
    <tripinfo id="-E9__0__motorbike.2" depart="11.00" departLane="-E9_1" departPos="2.10" departPosLat="0.00" departSpeed="0.00" departDelay="0.76" arrival="57.00" arrivalLane="E8_2" arrivalPos="201.31" arrivalPosLat="0.00" arrivalSpeed="10.94" duration="46.00" routeLength="421.26" waitingTime="0.00" waitingCount="0" stopTime="0.00" timeLoss="7.19" rerouteNo="0" devices="tripinfo_-E9__0__motorbike.2 emissions_-E9__0__motorbike.2" vType="motorbike" speedFactor="1.00" vaporized="">
        <emissions CO_abs="2784.527150" CO2_abs="93974.440641" HC_abs="12.545296" PMx_abs="4.016646" NOx_abs="21.932960" fuel_abs="29976.858734" electricity_abs="0"/>
    </tripinfo>
    <tripinfo id="-E1__0__motorbike.0" depart="1.00" departLane="-E1_1" departPos="2.10" departPosLat="0.00" departSpeed="0.00" departDelay="0.97" arrival="58.00" arrivalLane="-E0_3" arrivalPos="130.83" arrivalPosLat="0.00" arrivalSpeed="10.48" duration="57.00" routeLength="317.65" waitingTime="15.00" waitingCount="1" stopTime="0.00" timeLoss="26.64" rerouteNo="0" devices="tripinfo_-E1__0__motorbike.0 emissions_-E1__0__motorbike.0" vType="motorbike" speedFactor="0.97" vaporized="">
        <emissions CO_abs="6268.405919" CO2_abs="112362.131839" HC_abs="24.879157" PMx_abs="7.220936" NOx_abs="26.506733" fuel_abs="35843.029506" electricity_abs="0"/>
    </tripinfo>
    <tripinfo id="-E11__0__car.0" depart="4.00" departLane="-E11_3" departPos="4.60" departPosLat="0.00" departSpeed="0.00" departDelay="0.40" arrival="59.00" arrivalLane="E10_1" arrivalPos="216.74" arrivalPosLat="0.20" arrivalSpeed="10.36" duration="55.00" routeLength="495.36" waitingTime="0.00" waitingCount="0" stopTime="0.00" timeLoss="6.62" rerouteNo="0" devices="tripinfo_-E11__0__car.0 emissions_-E11__0__car.0" vType="car" speedFactor="0.94" vaporized="">
        <emissions CO_abs="2138.258591" CO2_abs="127898.956537" HC_abs="12.627413" PMx_abs="1.700193" NOx_abs="48.843563" fuel_abs="40794.624341" electricity_abs="0"/>
    </tripinfo>
    <tripinfo id="-E1__0__car.0" depart="4.00" departLane="-E1_2" departPos="4.60" departPosLat="0.00" departSpeed="0.00" departDelay="2.46" arrival="60.00" arrivalLane="-E0_3" arrivalPos="130.83" arrivalPosLat="0.00" arrivalSpeed="10.39" duration="56.00" routeLength="315.15" waitingTime="14.00" waitingCount="1" stopTime="0.00" timeLoss="26.77" rerouteNo="0" devices="tripinfo_-E1__0__car.0 emissions_-E1__0__car.0" vType="car" speedFactor="0.98" vaporized="">
        <emissions CO_abs="4839.314251" CO2_abs="148220.455199" HC_abs="25.450220" PMx_abs="2.695035" NOx_abs="61.489398" fuel_abs="47277.027898" electricity_abs="0"/>
    </tripinfo>
    <tripinfo id="-E5__0__motorbike.10" depart="21.00" departLane="-E5_1" departPos="2.10" departPosLat="0.00" departSpeed="0.00" departDelay="1.44" arrival="60.00" arrivalLane="E4_2" arrivalPos="143.61" arrivalPosLat="0.00" arrivalSpeed="9.51" duration="39.00" routeLength="320.87" waitingTime="0.00" waitingCount="0" stopTime="0.00" timeLoss="6.65" rerouteNo="0" devices="tripinfo_-E5__0__motorbike.10 emissions_-E5__0__motorbike.10" vType="motorbike" speedFactor="0.92" vaporized="">
        <emissions CO_abs="2544.031425" CO2_abs="78055.174529" HC_abs="11.180306" PMx_abs="3.517397" NOx_abs="18.251850" fuel_abs="24898.864762" electricity_abs="0"/>
    </tripinfo>
    <tripinfo id="E0__0__motorbike.6" depart="22.00" departLane="E0_3" departPos="2.10" departPosLat="0.00" departSpeed="0.00" departDelay="6.07" arrival="61.00" arrivalLane="E1_2" arrivalPos="164.31" arrivalPosLat="0.00" arrivalSpeed="10.34" duration="39.00" routeLength="302.09" waitingTime="0.00" waitingCount="0" stopTime="0.00" timeLoss="9.54" rerouteNo="0" devices="tripinfo_E0__0__motorbike.6 emissions_E0__0__motorbike.6" vType="motorbike" speedFactor="0.95" vaporized="">
        <emissions CO_abs="2940.288141" CO2_abs="84692.410204" HC_abs="12.816049" PMx_abs="4.044063" NOx_abs="19.616101" fuel_abs="27016.152984" electricity_abs="0"/>
    </tripinfo>
    <tripinfo id="-E5__0__motorbike.11" depart="24.00" departLane="-E5_1" departPos="2.10" departPosLat="0.00" departSpeed="0.00" departDelay="0.62" arrival="61.00" arrivalLane="E4_1" arrivalPos="143.61" arrivalPosLat="0.00" arrivalSpeed="10.41" duration="37.00" routeLength="320.87" waitingTime="0.00" waitingCount="0" stopTime="0.00" timeLoss="7.29" rerouteNo="0" devices="tripinfo_-E5__0__motorbike.11 emissions_-E5__0__motorbike.11" vType="motorbike" speedFactor="1.18" vaporized="">
        <emissions CO_abs="2658.221255" CO2_abs="83041.604939" HC_abs="11.850979" PMx_abs="3.814222" NOx_abs="19.140089" fuel_abs="26489.496004" electricity_abs="0"/>
    </tripinfo>
    <tripinfo id="-E1__0__motorbike.1" depart="5.00" departLane="-E1_3" departPos="2.10" departPosLat="0.00" departSpeed="0.00" departDelay="0.46" arrival="62.00" arrivalLane="-E0_3" arrivalPos="130.83" arrivalPosLat="0.00" arrivalSpeed="10.93" duration="57.00" routeLength="317.65" waitingTime="13.00" waitingCount="1" stopTime="0.00" timeLoss="27.83" rerouteNo="0" devices="tripinfo_-E1__0__motorbike.1 emissions_-E1__0__motorbike.1" vType="motorbike" speedFactor="1.11" vaporized="">
        <emissions CO_abs="6312.909903" CO2_abs="123223.310431" HC_abs="25.407846" PMx_abs="7.468483" NOx_abs="28.980934" fuel_abs="39307.572779" electricity_abs="0"/>
    </tripinfo>
    <tripinfo id="-E5__0__motorbike.14" depart="26.00" departLane="-E5_1" departPos="2.10" departPosLat="0.00" departSpeed="0.00" departDelay="0.15" arrival="63.00" arrivalLane="E4_2" arrivalPos="143.61" arrivalPosLat="0.00" arrivalSpeed="11.10" duration="37.00" routeLength="320.87" waitingTime="0.00" waitingCount="0" stopTime="0.00" timeLoss="7.20" rerouteNo="0" devices="tripinfo_-E5__0__motorbike.14 emissions_-E5__0__motorbike.14" vType="motorbike" speedFactor="1.10" vaporized="">
        <emissions CO_abs="2759.747811" CO2_abs="87559.050328" HC_abs="12.316920" PMx_abs="3.950624" NOx_abs="20.268720" fuel_abs="27930.485717" electricity_abs="0"/>
    </tripinfo>
    <tripinfo id="-E1__0__motorbike.3" depart="8.00" departLane="-E1_1" departPos="2.10" departPosLat="0.00" departSpeed="0.00" departDelay="0.05" arrival="64.00" arrivalLane="-E0_3" arrivalPos="130.83" arrivalPosLat="0.00" arrivalSpeed="9.95" duration="56.00" routeLength="317.65" waitingTime="12.00" waitingCount="1" stopTime="0.00" timeLoss="24.48" rerouteNo="0" devices="tripinfo_-E1__0__motorbike.3 emissions_-E1__0__motorbike.3" vType="motorbike" speedFactor="0.93" vaporized="">
        <emissions CO_abs="5728.192480" CO2_abs="109831.460868" HC_abs="22.850876" PMx_abs="6.610578" NOx_abs="26.159459" fuel_abs="35035.641531" electricity_abs="0"/>
    </tripinfo>
    <tripinfo id="E0__0__motorbike.7" depart="19.00" departLane="E0_3" departPos="2.10" departPosLat="0.00" departSpeed="0.00" departDelay="1.63" arrival="64.00" arrivalLane="E1_2" arrivalPos="164.31" arrivalPosLat="0.00" arrivalSpeed="10.73" duration="45.00" routeLength="302.09" waitingTime="0.00" waitingCount="0" stopTime="0.00" timeLoss="16.46" rerouteNo="0" devices="tripinfo_E0__0__motorbike.7 emissions_E0__0__motorbike.7" vType="motorbike" speedFactor="1.04" vaporized="">
        <emissions CO_abs="3619.615507" CO2_abs="89362.426791" HC_abs="15.272249" PMx_abs="4.707051" NOx_abs="20.691929" fuel_abs="28505.987673" electricity_abs="0"/>
    </tripinfo>
    <tripinfo id="-E4__0__motorbike.4" depart="7.00" departLane="-E4_3" departPos="2.10" departPosLat="0.00" departSpeed="0.00" departDelay="2.16" arrival="65.00" arrivalLane="-E0_2" arrivalPos="130.83" arrivalPosLat="0.00" arrivalSpeed="10.37" duration="58.00" routeLength="516.94" waitingTime="0.00" waitingCount="0" stopTime="0.00" timeLoss="9.86" rerouteNo="0" devices="tripinfo_-E4__0__motorbike.4 emissions_-E4__0__motorbike.4" vType="motorbike" speedFactor="1.01" vaporized="">
        <emissions CO_abs="4118.348728" CO2_abs="129820.008807" HC_abs="18.374380" PMx_abs="5.905004" NOx_abs="29.984771" fuel_abs="41411.348457" electricity_abs="0"/>
    </tripinfo>
    <tripinfo id="-E1__0__motorbike.2" depart="6.00" departLane="-E1_1" departPos="2.10" departPosLat="0.00" departSpeed="0.00" departDelay="0.01" arrival="65.00" arrivalLane="-E0_3" arrivalPos="130.83" arrivalPosLat="-1.25" arrivalSpeed="10.10" duration="59.00" routeLength="317.65" waitingTime="11.00" waitingCount="1" stopTime="0.00" timeLoss="28.25" rerouteNo="0" devices="tripinfo_-E1__0__motorbike.2 emissions_-E1__0__motorbike.2" vType="motorbike" speedFactor="0.94" vaporized="">
        <emissions CO_abs="6523.897531" CO2_abs="121105.681571" HC_abs="25.999431" PMx_abs="7.567026" NOx_abs="28.585098" fuel_abs="38632.160492" electricity_abs="0"/>
    </tripinfo>
    <tripinfo id="-E1__0__car.1" depart="7.00" departLane="-E1_2" departPos="4.60" departPosLat="0.00" departSpeed="0.00" departDelay="3.57" arrival="66.00" arrivalLane="-E0_3" arrivalPos="130.83" arrivalPosLat="0.00" arrivalSpeed="10.52" duration="59.00" routeLength="315.15" waitingTime="10.00" waitingCount="2" stopTime="0.00" timeLoss="29.78" rerouteNo="0" devices="tripinfo_-E1__0__car.1 emissions_-E1__0__car.1" vType="car" speedFactor="1.02" vaporized="">
        <emissions CO_abs="5177.325792" CO2_abs="161199.052017" HC_abs="27.277788" PMx_abs="2.870086" NOx_abs="66.604748" fuel_abs="51416.740384" electricity_abs="0"/>
    </tripinfo>
    <tripinfo id="E0__0__motorbike.12" depart="28.00" departLane="E0_1" departPos="2.10" departPosLat="0.00" departSpeed="0.00" departDelay="1.05" arrival="66.00" arrivalLane="E1_2" arrivalPos="164.31" arrivalPosLat="0.00" arrivalSpeed="10.93" duration="38.00" routeLength="302.09" waitingTime="0.00" waitingCount="0" stopTime="0.00" timeLoss="10.21" rerouteNo="0" devices="tripinfo_E0__0__motorbike.12 emissions_E0__0__motorbike.12" vType="motorbike" speedFactor="1.13" vaporized="">
        <emissions CO_abs="3020.721748" CO2_abs="87108.842806" HC_abs="13.198955" PMx_abs="4.186824" NOx_abs="20.096930" fuel_abs="27786.992403" electricity_abs="0"/>
    </tripinfo>
    <tripinfo id="-E5__0__motorbike.12" depart="24.00" departLane="-E5_3" departPos="2.10" departPosLat="0.00" departSpeed="0.00" departDelay="0.00" arrival="67.00" arrivalLane="E4_1" arrivalPos="143.61" arrivalPosLat="0.00" arrivalSpeed="10.47" duration="43.00" routeLength="320.87" waitingTime="0.00" waitingCount="0" stopTime="0.00" timeLoss="13.20" rerouteNo="0" devices="tripinfo_-E5__0__motorbike.12 emissions_-E5__0__motorbike.12" vType="motorbike" speedFactor="1.07" vaporized="">
        <emissions CO_abs="3670.907118" CO2_abs="100609.943934" HC_abs="15.887604" PMx_abs="5.016873" NOx_abs="23.145994" fuel_abs="32093.787281" electricity_abs="0"/>
    </tripinfo>
    <tripinfo id="-E8__0__motorbike.5" depart="9.00" departLane="-E8_2" departPos="2.10" departPosLat="0.00" departSpeed="0.00" departDelay="2.15" arrival="68.00" arrivalLane="E5_2" arrivalPos="170.02" arrivalPosLat="0.00" arrivalSpeed="10.38" duration="59.00" routeLength="541.19" waitingTime="0.00" waitingCount="0" stopTime="0.00" timeLoss="8.05" rerouteNo="0" devices="tripinfo_-E8__0__motorbike.5 emissions_-E8__0__motorbike.5" vType="motorbike" speedFactor="1.01" vaporized="">
        <emissions CO_abs="3637.974409" CO2_abs="119991.395152" HC_abs="16.487879" PMx_abs="5.387023" NOx_abs="27.537888" fuel_abs="38276.090292" electricity_abs="0"/>
    </tripinfo>
    <tripinfo id="-E1__0__car.6" depart="20.00" departLane="-E1_2" departPos="4.60" departPosLat="0.00" departSpeed="0.00" departDelay="3.27" arrival="68.00" arrivalLane="-E0_3" arrivalPos="130.83" arrivalPosLat="0.00" arrivalSpeed="9.53" duration="48.00" routeLength="315.15" waitingTime="0.00" waitingCount="0" stopTime="0.00" timeLoss="15.62" rerouteNo="0" devices="tripinfo_-E1__0__car.6 emissions_-E1__0__car.6" vType="car" speedFactor="0.90" vaporized="">
        <emissions CO_abs="3298.928908" CO2_abs="121174.772044" HC_abs="17.798950" PMx_abs="2.038243" NOx_abs="49.449758" fuel_abs="38650.169271" electricity_abs="0"/>
    </tripinfo>
    <tripinfo id="E0__0__car.7" depart="26.00" departLane="E0_3" departPos="4.60" departPosLat="0.00" departSpeed="0.00" departDelay="2.65" arrival="69.00" arrivalLane="E1_1" arrivalPos="164.31" arrivalPosLat="0.00" arrivalSpeed="10.94" duration="43.00" routeLength="299.59" waitingTime="0.00" waitingCount="0" stopTime="0.00" timeLoss="15.50" rerouteNo="0" devices="tripinfo_E0__0__car.7 emissions_E0__0__car.7" vType="car" speedFactor="1.18" vaporized="">
        <emissions CO_abs="2733.630726" CO2_abs="120474.289965" HC_abs="15.208381" PMx_abs="1.931026" NOx_abs="48.463014" fuel_abs="38426.509878" electricity_abs="0"/>
    </tripinfo>
    <tripinfo id="-E1__0__car.7" depart="20.00" departLane="-E1_1" departPos="4.60" departPosLat="0.00" departSpeed="0.00" departDelay="1.16" arrival="70.00" arrivalLane="-E0_3" arrivalPos="130.83" arrivalPosLat="0.00" arrivalSpeed="9.27" duration="50.00" routeLength="315.15" waitingTime="2.00" waitingCount="1" stopTime="0.00" timeLoss="17.08" rerouteNo="0" devices="tripinfo_-E1__0__car.7 emissions_-E1__0__car.7" vType="car" speedFactor="0.88" vaporized="">
        <emissions CO_abs="3200.583679" CO2_abs="121087.534471" HC_abs="17.332582" PMx_abs="1.934694" NOx_abs="48.740914" fuel_abs="38622.399638" electricity_abs="0"/>
    </tripinfo>
    <tripinfo id="-E11__0__car.1" depart="12.00" departLane="-E11_3" departPos="4.60" departPosLat="0.00" departSpeed="0.00" departDelay="2.74" arrival="72.00" arrivalLane="E10_1" arrivalPos="216.74" arrivalPosLat="0.00" arrivalSpeed="9.18" duration="60.00" routeLength="495.36" waitingTime="0.00" waitingCount="0" stopTime="0.00" timeLoss="8.45" rerouteNo="0" devices="tripinfo_-E11__0__car.1 emissions_-E11__0__car.1" vType="car" speedFactor="0.88" vaporized="">
        <emissions CO_abs="2647.509240" CO2_abs="140422.779661" HC_abs="15.217485" PMx_abs="1.871459" NOx_abs="53.982614" fuel_abs="44789.377322" electricity_abs="0"/>
    </tripinfo>
    <tripinfo id="-E8__0__motorbike.7" depart="11.00" departLane="-E8_3" departPos="2.10" departPosLat="0.00" departSpeed="0.00" departDelay="1.32" arrival="74.00" arrivalLane="E5_2" arrivalPos="170.02" arrivalPosLat="0.00" arrivalSpeed="10.57" duration="63.00" routeLength="541.19" waitingTime="0.00" waitingCount="0" stopTime="0.00" timeLoss="12.61" rerouteNo="0" devices="tripinfo_-E8__0__motorbike.7 emissions_-E8__0__motorbike.7" vType="motorbike" speedFactor="1.16" vaporized="">
        <emissions CO_abs="4368.071543" CO2_abs="136643.270653" HC_abs="19.500865" PMx_abs="6.291722" NOx_abs="31.444281" fuel_abs="43587.934359" electricity_abs="0"/>
    </tripinfo>
    <tripinfo id="-E10__0__motorbike.0" depart="2.00" departLane="-E10_1" departPos="2.10" departPosLat="0.00" departSpeed="0.00" departDelay="0.79" arrival="75.00" arrivalLane="E11_1" arrivalPos="274.15" arrivalPosLat="0.00" arrivalSpeed="9.39" duration="73.00" routeLength="513.33" waitingTime="8.00" waitingCount="1" stopTime="0.00" timeLoss="17.68" rerouteNo="0" devices="tripinfo_-E10__0__motorbike.0 emissions_-E10__0__motorbike.0" vType="motorbike" speedFactor="0.85" vaporized="">
        <emissions CO_abs="5622.660712" CO2_abs="138010.506882" HC_abs="23.305860" PMx_abs="6.904819" NOx_abs="32.984728" fuel_abs="44024.221999" electricity_abs="0"/>
    </tripinfo>
    <tripinfo id="-E10__0__car.0" depart="11.00" departLane="-E10_2" departPos="4.60" departPosLat="0.00" departSpeed="0.00" departDelay="0.42" arrival="75.00" arrivalLane="E11_2" arrivalPos="274.15" arrivalPosLat="0.00" arrivalSpeed="10.32" duration="64.00" routeLength="510.83" waitingTime="2.00" waitingCount="1" stopTime="0.00" timeLoss="13.99" rerouteNo="0" devices="tripinfo_-E10__0__car.0 emissions_-E10__0__car.0" vType="car" speedFactor="0.93" vaporized="">
        <emissions CO_abs="3270.023975" CO2_abs="157786.439717" HC_abs="18.456858" PMx_abs="2.207227" NOx_abs="61.012910" fuel_abs="50327.804592" electricity_abs="0"/>
    </tripinfo>
    <tripinfo id="-E11__0__motorbike.5" depart="14.00" departLane="-E11_3" departPos="2.10" departPosLat="0.00" departSpeed="0.00" departDelay="0.25" arrival="75.00" arrivalLane="E10_1" arrivalPos="216.74" arrivalPosLat="0.00" arrivalSpeed="9.33" duration="61.00" routeLength="497.86" waitingTime="0.00" waitingCount="0" stopTime="0.00" timeLoss="7.60" rerouteNo="0" devices="tripinfo_-E11__0__motorbike.5 emissions_-E11__0__motorbike.5" vType="motorbike" speedFactor="0.85" vaporized="">
        <emissions CO_abs="3123.052597" CO2_abs="101360.833265" HC_abs="13.668164" PMx_abs="4.183624" NOx_abs="24.266451" fuel_abs="32333.039565" electricity_abs="0"/>
    </tripinfo>
    <tripinfo id="-E11__0__car.2" depart="18.00" departLane="-E11_2" departPos="4.60" departPosLat="0.00" departSpeed="0.00" departDelay="0.59" arrival="76.00" arrivalLane="E10_2" arrivalPos="216.74" arrivalPosLat="0.00" arrivalSpeed="9.42" duration="58.00" routeLength="495.36" waitingTime="0.00" waitingCount="0" stopTime="0.00" timeLoss="7.45" rerouteNo="0" devices="tripinfo_-E11__0__car.2 emissions_-E11__0__car.2" vType="car" speedFactor="0.90" vaporized="">
        <emissions CO_abs="2222.181648" CO2_abs="126793.471928" HC_abs="12.967577" PMx_abs="1.620512" NOx_abs="48.166352" fuel_abs="40442.142595" electricity_abs="0"/>
    </tripinfo>
    <tripinfo id="E0__0__motorbike.15" depart="41.00" departLane="E0_1" departPos="2.10" departPosLat="0.00" departSpeed="0.00" departDelay="0.46" arrival="76.00" arrivalLane="E1_2" arrivalPos="164.31" arrivalPosLat="0.00" arrivalSpeed="10.43" duration="35.00" routeLength="302.09" waitingTime="0.00" waitingCount="0" stopTime="0.00" timeLoss="6.49" rerouteNo="0" devices="tripinfo_E0__0__motorbike.15 emissions_E0__0__motorbike.15" vType="motorbike" speedFactor="0.98" vaporized="">
        <emissions CO_abs="2579.305639" CO2_abs="79512.460713" HC_abs="11.461733" PMx_abs="3.682493" NOx_abs="18.320737" fuel_abs="25363.751452" electricity_abs="0"/>
    </tripinfo>
    <tripinfo id="-E8__0__motorbike.8" depart="11.00" departLane="-E8_2" departPos="2.10" departPosLat="0.00" departSpeed="0.00" departDelay="0.29" arrival="77.00" arrivalLane="E5_2" arrivalPos="170.02" arrivalPosLat="0.00" arrivalSpeed="10.77" duration="66.00" routeLength="541.19" waitingTime="1.00" waitingCount="1" stopTime="0.00" timeLoss="15.70" rerouteNo="0" devices="tripinfo_-E8__0__motorbike.8 emissions_-E8__0__motorbike.8" vType="motorbike" speedFactor="1.05" vaporized="">
        <emissions CO_abs="5331.012793" CO2_abs="156170.997162" HC_abs="23.369123" PMx_abs="7.416449" NOx_abs="36.091398" fuel_abs="49817.169819" electricity_abs="0"/>
    </tripinfo>
    <tripinfo id="-E11__0__motorbike.6" depart="20.00" departLane="-E11_3" departPos="2.10" departPosLat="0.00" departSpeed="0.00" departDelay="1.18" arrival="77.00" arrivalLane="E10_3" arrivalPos="216.74" arrivalPosLat="0.00" arrivalSpeed="11.03" duration="57.00" routeLength="497.86" waitingTime="0.00" waitingCount="0" stopTime="0.00" timeLoss="11.40" rerouteNo="0" devices="tripinfo_-E11__0__motorbike.6 emissions_-E11__0__motorbike.6" vType="motorbike" speedFactor="1.11" vaporized="">
        <emissions CO_abs="3793.237875" CO2_abs="126597.045406" HC_abs="17.185184" PMx_abs="5.587592" NOx_abs="29.200153" fuel_abs="40383.193295" electricity_abs="0"/>
    </tripinfo>
    <tripinfo id="-E10__0__car.2" depart="22.00" departLane="-E10_2" departPos="4.60" departPosLat="0.00" departSpeed="0.00" departDelay="1.76" arrival="77.00" arrivalLane="E11_3" arrivalPos="274.15" arrivalPosLat="0.00" arrivalSpeed="11.03" duration="55.00" routeLength="510.83" waitingTime="0.00" waitingCount="0" stopTime="0.00" timeLoss="9.01" rerouteNo="0" devices="tripinfo_-E10__0__car.2 emissions_-E10__0__car.2" vType="car" speedFactor="1.15" vaporized="">
        <emissions CO_abs="2009.200334" CO2_abs="126512.813765" HC_abs="11.998064" PMx_abs="1.641693" NOx_abs="47.923513" fuel_abs="40352.490924" electricity_abs="0"/>
    </tripinfo>
    <tripinfo id="-E10__0__motorbike.3" depart="19.00" departLane="-E10_1" departPos="2.10" departPosLat="0.00" departSpeed="0.00" departDelay="0.80" arrival="78.00" arrivalLane="E11_1" arrivalPos="274.15" arrivalPosLat="0.00" arrivalSpeed="9.44" duration="59.00" routeLength="513.33" waitingTime="0.00" waitingCount="0" stopTime="0.00" timeLoss="5.56" rerouteNo="0" devices="tripinfo_-E10__0__motorbike.3 emissions_-E10__0__motorbike.3" vType="motorbike" speedFactor="0.88" vaporized="">
        <emissions CO_abs="2643.624999" CO2_abs="93484.199205" HC_abs="11.879883" PMx_abs="3.725140" NOx_abs="22.221888" fuel_abs="29820.413408" electricity_abs="0"/>
    </tripinfo>
    <tripinfo id="-E10__0__motorbike.4" depart="23.00" departLane="-E10_1" departPos="2.10" departPosLat="0.00" departSpeed="0.00" departDelay="0.94" arrival="79.00" arrivalLane="E11_2" arrivalPos="274.15" arrivalPosLat="1.20" arrivalSpeed="10.85" duration="56.00" routeLength="513.33" waitingTime="0.00" waitingCount="0" stopTime="0.00" timeLoss="9.43" rerouteNo="0" devices="tripinfo_-E10__0__motorbike.4 emissions_-E10__0__motorbike.4" vType="motorbike" speedFactor="1.06" vaporized="">
        <emissions CO_abs="3447.407275" CO2_abs="121388.988696" HC_abs="15.703878" PMx_abs="5.063716" NOx_abs="28.334356" fuel_abs="38721.765193" electricity_abs="0"/>
    </tripinfo>
    <tripinfo id="-E11__0__car.3" depart="23.00" departLane="-E11_1" departPos="4.60" departPosLat="0.00" departSpeed="0.00" departDelay="0.60" arrival="79.00" arrivalLane="E10_2" arrivalPos="216.74" arrivalPosLat="0.00" arrivalSpeed="10.67" duration="56.00" routeLength="495.36" waitingTime="0.00" waitingCount="0" stopTime="0.00" timeLoss="10.50" rerouteNo="0" devices="tripinfo_-E11__0__car.3 emissions_-E11__0__car.3" vType="car" speedFactor="1.10" vaporized="">
        <emissions CO_abs="2145.368553" CO2_abs="130536.575274" HC_abs="12.715725" PMx_abs="1.725335" NOx_abs="49.702053" fuel_abs="41635.914987" electricity_abs="0"/>
    </tripinfo>
    <tripinfo id="-E9__0__motorbike.8" depart="28.00" departLane="-E9_3" departPos="2.10" departPosLat="0.00" departSpeed="0.00" departDelay="0.75" arrival="79.00" arrivalLane="E8_1" arrivalPos="201.31" arrivalPosLat="1.20" arrivalSpeed="10.85" duration="51.00" routeLength="421.26" waitingTime="0.00" waitingCount="0" stopTime="0.00" timeLoss="11.69" rerouteNo="0" devices="tripinfo_-E9__0__motorbike.8 emissions_-E9__0__motorbike.8" vType="motorbike" speedFactor="1.02" vaporized="">
        <emissions CO_abs="4232.892138" CO2_abs="128135.966179" HC_abs="18.781883" PMx_abs="6.053902" NOx_abs="29.381970" fuel_abs="40874.258104" electricity_abs="0"/>
    </tripinfo>