<?xml version="1.0" encoding="UTF-8"?>

<!-- generated on 2026-06-21 12:08:20 by Eclipse SUMO GUI Version 1.18.0
<configuration xmlns:xsi="http://www.w3.org/2001/XMLSchema-instance" xsi:noNamespaceSchemaLocation="http://sumo.dlr.de/xsd/sumoConfiguration.xsd">

    <input>
        <net-file value="Scenario/3nodes/env/3nodes.net.xml"/>
        <route-files value="Scenario/3nodes/env/../routes/vehicle.rou.xml"/>
        <additional-files value="Scenario/3nodes/env/../add/tls.add.xml,Scenario/3nodes/env/ ../add/e2.add.xml"/>
    </input>

    <output>
        <netstate-dump value="Scenario/3nodes/env/../output/e2.netstate.xml"/>
        <netstate-dump.precision value="2"/>
        <summary-output value="Scenario/3nodes/env/../output/e2_summary.output.xml"/>
        <tripinfo-output value="/home/hoanganh/Project/TSC-CoLight/deploy_3nodes_large.tripinfo.xml"/>
        <tripinfo-output.write-unfinished value="true"/>
    </output>

    <time>
        <begin value="0"/>
        <end value="504"/>
        <step-length value="1.0"/>
    </time>

    <processing>
        <lateral-resolution value="0.2"/>
        <time-to-teleport value="-1"/>
        <waiting-time-memory value="10000"/>
        <max-depart-delay value="100000"/>
    </processing>

    <report>
        <no-warnings value="true"/>
        <no-step-log value="true"/>
    </report>

    <emissions>
        <device.emissions.probability value="1.0"/>
    </emissions>

    <traci_server>
        <remote-port value="35145"/>
    </traci_server>

    <random_number>
        <random value="true"/>
    </random_number>

    <gui_only>
        <quit-on-end value="true"/>
        <start value="true"/>
    </gui_only>

</configuration>
-->

<tripinfos xmlns:xsi="http://www.w3.org/2001/XMLSchema-instance" xsi:noNamespaceSchemaLocation="http://sumo.dlr.de/xsd/tripinfo_file.xsd">
    <tripinfo id="E0__0__car.0" depart="1.00" departLane="E0_1" departPos="4.60" departPosLat="0.00" departSpeed="0.00" departDelay="0.16" arrival="35.00" arrivalLane="E1_1" arrivalPos="153.25" arrivalPosLat="0.00" arrivalSpeed="10.37" duration="34.00" routeLength="295.33" waitingTime="0.00" waitingCount="0" stopTime="0.00" timeLoss="6.21" rerouteNo="0" devices="tripinfo_E0__0__car.0 emissions_E0__0__car.0" vType="car" speedFactor="1.09" vaporized="">
        <emissions CO_abs="1611.083284" CO2_abs="89600.907186" HC_abs="9.380888" PMx_abs="1.311570" NOx_abs="35.024051" fuel_abs="28579.019115" electricity_abs="0"/>
    </tripinfo>
    <tripinfo id="-E2__0__motorbike.3" depart="5.00" departLane="-E2_3" departPos="2.10" departPosLat="0.00" departSpeed="0.00" departDelay="0.16" arrival="39.00" arrivalLane="-E0_2" arrivalPos="137.59" arrivalPosLat="0.00" arrivalSpeed="10.46" duration="34.00" routeLength="308.00" waitingTime="0.00" waitingCount="0" stopTime="0.00" timeLoss="5.67" rerouteNo="0" devices="tripinfo_-E2__0__motorbike.3 emissions_-E2__0__motorbike.3" vType="motorbike" speedFactor="1.21" vaporized="">
        <emissions CO_abs="2031.296387" CO2_abs="66175.682544" HC_abs="9.059131" PMx_abs="2.873766" NOx_abs="15.482505" fuel_abs="21109.354592" electricity_abs="0"/>
    </tripinfo>
    <tripinfo id="-E1__0__motorbike.0" depart="1.00" departLane="-E1_1" departPos="2.10" departPosLat="0.00" departSpeed="0.00" departDelay="0.97" arrival="40.00" arrivalLane="E2_1" arrivalPos="144.59" arrivalPosLat="0.00" arrivalSpeed="9.12" duration="39.00" routeLength="305.57" waitingTime="0.00" waitingCount="0" stopTime="0.00" timeLoss="6.72" rerouteNo="0" devices="tripinfo_-E1__0__motorbike.0 emissions_-E1__0__motorbike.0" vType="motorbike" speedFactor="0.89" vaporized="">
        <emissions CO_abs="2497.876493" CO2_abs="76050.165401" HC_abs="10.925294" PMx_abs="3.414253" NOx_abs="17.850729" fuel_abs="24259.293822" electricity_abs="0"/>
    </tripinfo>
    <tripinfo id="E0__0__motorbike.0" depart="4.00" departLane="E0_2" departPos="2.10" departPosLat="0.00" departSpeed="0.00" departDelay="0.42" arrival="40.00" arrivalLane="E1_1" arrivalPos="153.25" arrivalPosLat="0.00" arrivalSpeed="10.71" duration="36.00" routeLength="297.83" waitingTime="0.00" waitingCount="0" stopTime="0.00" timeLoss="8.10" rerouteNo="0" devices="tripinfo_E0__0__motorbike.0 emissions_E0__0__motorbike.0" vType="motorbike" speedFactor="1.11" vaporized="">
        <emissions CO_abs="2767.423661" CO2_abs="80699.023308" HC_abs="12.173262" PMx_abs="3.899213" NOx_abs="18.505862" fuel_abs="25742.310148" electricity_abs="0"/>
    </tripinfo>
    <tripinfo id="-E2__0__motorbike.1" depart="1.00" departLane="-E2_2" departPos="2.10" departPosLat="0.00" departSpeed="0.00" departDelay="0.81" arrival="41.00" arrivalLane="-E0_2" arrivalPos="137.59" arrivalPosLat="0.00" arrivalSpeed="10.80" duration="40.00" routeLength="308.00" waitingTime="1.00" waitingCount="1" stopTime="0.00" timeLoss="11.07" rerouteNo="0" devices="tripinfo_-E2__0__motorbike.1 emissions_-E2__0__motorbike.1" vType="motorbike" speedFactor="0.98" vaporized="">
        <emissions CO_abs="3199.039402" CO2_abs="80860.451566" HC_abs="13.524255" PMx_abs="4.154462" NOx_abs="18.834742" fuel_abs="25793.868797" electricity_abs="0"/>
    </tripinfo>
    <tripinfo id="-E1__0__car.1" depart="6.00" departLane="-E1_1" departPos="4.60" departPosLat="0.00" departSpeed="0.00" departDelay="2.57" arrival="41.00" arrivalLane="E2_2" arrivalPos="144.59" arrivalPosLat="0.00" arrivalSpeed="10.73" duration="35.00" routeLength="303.07" waitingTime="0.00" waitingCount="0" stopTime="0.00" timeLoss="6.85" rerouteNo="0" devices="tripinfo_-E1__0__car.1 emissions_-E1__0__car.1" vType="car" speedFactor="1.00" vaporized="">
        <emissions CO_abs="1694.859384" CO2_abs="94370.262246" HC_abs="9.867114" PMx_abs="1.362584" NOx_abs="36.754635" fuel_abs="30100.270565" electricity_abs="0"/>
    </tripinfo>
    <tripinfo id="-E5__0__motorbike.0" depart="1.00" departLane="-E5_1" departPos="2.10" departPosLat="0.00" departSpeed="0.00" departDelay="0.00" arrival="42.00" arrivalLane="E4_2" arrivalPos="141.64" arrivalPosLat="0.00" arrivalSpeed="9.21" duration="41.00" routeLength="299.03" waitingTime="0.00" waitingCount="0" stopTime="0.00" timeLoss="9.87" rerouteNo="0" devices="tripinfo_-E5__0__motorbike.0 emissions_-E5__0__motorbike.0" vType="motorbike" speedFactor="0.89" vaporized="">
        <emissions CO_abs="3067.720513" CO2_abs="83418.203685" HC_abs="13.157400" PMx_abs="4.087079" NOx_abs="19.422521" fuel_abs="26609.739386" electricity_abs="0"/>
    </tripinfo>
    <tripinfo id="E0__0__car.1" depart="5.00" departLane="E0_3" departPos="4.60" departPosLat="0.00" departSpeed="0.00" departDelay="0.84" arrival="42.00" arrivalLane="E1_2" arrivalPos="153.25" arrivalPosLat="0.00" arrivalSpeed="10.79" duration="37.00" routeLength="295.33" waitingTime="0.00" waitingCount="0" stopTime="0.00" timeLoss="9.49" rerouteNo="0" devices="tripinfo_E0__0__car.1 emissions_E0__0__car.1" vType="car" speedFactor="1.01" vaporized="">
        <emissions CO_abs="1933.682948" CO2_abs="97825.209698" HC_abs="11.042682" PMx_abs="1.494323" NOx_abs="38.786374" fuel_abs="31202.262376" electricity_abs="0"/>
    </tripinfo>
    <tripinfo id="-E1__0__motorbike.1" depart="6.00" departLane="-E1_3" departPos="2.10" departPosLat="0.00" departSpeed="0.00" departDelay="1.46" arrival="43.00" arrivalLane="E2_1" arrivalPos="144.59" arrivalPosLat="0.00" arrivalSpeed="10.80" duration="37.00" routeLength="305.57" waitingTime="0.00" waitingCount="0" stopTime="0.00" timeLoss="8.61" rerouteNo="0" devices="tripinfo_-E1__0__motorbike.1 emissions_-E1__0__motorbike.1" vType="motorbike" speedFactor="1.08" vaporized="">
        <emissions CO_abs="3224.313935" CO2_abs="96529.893434" HC_abs="14.239644" PMx_abs="4.559389" NOx_abs="22.219945" fuel_abs="30792.184606" electricity_abs="0"/>
    </tripinfo>
    <tripinfo id="-E8__0__motorbike.3" depart="8.00" departLane="-E8_3" departPos="2.10" departPosLat="0.00" departSpeed="0.00" departDelay="1.15" arrival="43.00" arrivalLane="E9_1" arrivalPos="137.53" arrivalPosLat="0.00" arrivalSpeed="10.51" duration="35.00" routeLength="269.96" waitingTime="0.00" waitingCount="0" stopTime="0.00" timeLoss="10.00" rerouteNo="0" devices="tripinfo_-E8__0__motorbike.3 emissions_-E8__0__motorbike.3" vType="motorbike" speedFactor="1.24" vaporized="">
        <emissions CO_abs="2890.933289" CO2_abs="85891.589838" HC_abs="12.648106" PMx_abs="3.983305" NOx_abs="19.992112" fuel_abs="27398.642376" electricity_abs="0"/>
    </tripinfo>
    <tripinfo id="-E9__0__motorbike.1" depart="3.00" departLane="-E9_3" departPos="2.10" departPosLat="0.00" departSpeed="0.00" departDelay="0.27" arrival="45.00" arrivalLane="E7_2" arrivalPos="144.88" arrivalPosLat="0.00" arrivalSpeed="10.60" duration="42.00" routeLength="289.44" waitingTime="1.00" waitingCount="1" stopTime="0.00" timeLoss="13.79" rerouteNo="0" devices="tripinfo_-E9__0__motorbike.1 emissions_-E9__0__motorbike.1" vType="motorbike" speedFactor="0.97" vaporized="">
        <emissions CO_abs="4055.878730" CO2_abs="95582.440256" HC_abs="16.989318" PMx_abs="5.219599" NOx_abs="22.075484" fuel_abs="30490.182476" electricity_abs="0"/>
    </tripinfo>
    <tripinfo id="-E8__0__motorbike.5" depart="10.00" departLane="-E8_1" departPos="2.10" departPosLat="0.00" departSpeed="0.00" departDelay="0.32" arrival="46.00" arrivalLane="E9_1" arrivalPos="137.53" arrivalPosLat="0.00" arrivalSpeed="11.04" duration="36.00" routeLength="269.96" waitingTime="0.00" waitingCount="0" stopTime="0.00" timeLoss="11.06" rerouteNo="0" devices="tripinfo_-E8__0__motorbike.5 emissions_-E8__0__motorbike.5" vType="motorbike" speedFactor="1.10" vaporized="">
        <emissions CO_abs="3483.630759" CO2_abs="97162.742563" HC_abs="15.170146" PMx_abs="4.827178" NOx_abs="22.266220" fuel_abs="30994.153391" electricity_abs="0"/>
    </tripinfo>
    <tripinfo id="-E9__0__car.0" depart="10.00" departLane="-E9_2" departPos="4.60" departPosLat="0.00" departSpeed="0.00" departDelay="0.00" arrival="46.00" arrivalLane="E7_1" arrivalPos="144.88" arrivalPosLat="0.00" arrivalSpeed="10.39" duration="36.00" routeLength="286.94" waitingTime="0.00" waitingCount="0" stopTime="0.00" timeLoss="9.20" rerouteNo="0" devices="tripinfo_-E9__0__car.0 emissions_-E9__0__car.0" vType="car" speedFactor="1.21" vaporized="">
        <emissions CO_abs="1924.320464" CO2_abs="98958.258272" HC_abs="11.033919" PMx_abs="1.553265" NOx_abs="39.507373" fuel_abs="31563.593409" electricity_abs="0"/>
    </tripinfo>
    <tripinfo id="E0__0__motorbike.1" depart="7.00" departLane="E0_2" departPos="2.10" departPosLat="0.00" departSpeed="0.00" departDelay="0.46" arrival="47.00" arrivalLane="E1_2" arrivalPos="153.25" arrivalPosLat="0.00" arrivalSpeed="10.06" duration="40.00" routeLength="297.83" waitingTime="1.00" waitingCount="1" stopTime="0.00" timeLoss="10.14" rerouteNo="0" devices="tripinfo_E0__0__motorbike.1 emissions_E0__0__motorbike.1" vType="motorbike" speedFactor="0.93" vaporized="">
        <emissions CO_abs="3300.418218" CO2_abs="87397.000208" HC_abs="14.065992" PMx_abs="4.340262" NOx_abs="20.394980" fuel_abs="27878.943269" electricity_abs="0"/>
    </tripinfo>
    <tripinfo id="-E5__0__motorbike.3" depart="12.00" departLane="-E5_2" departPos="2.10" departPosLat="0.00" departSpeed="0.00" departDelay="3.18" arrival="47.00" arrivalLane="E4_2" arrivalPos="141.64" arrivalPosLat="0.00" arrivalSpeed="9.86" duration="35.00" routeLength="299.03" waitingTime="0.00" waitingCount="0" stopTime="0.00" timeLoss="5.45" rerouteNo="0" devices="tripinfo_-E5__0__motorbike.3 emissions_-E5__0__motorbike.3" vType="motorbike" speedFactor="0.92" vaporized="">
        <emissions CO_abs="1992.190456" CO2_abs="61906.963514" HC_abs="8.726497" PMx_abs="2.713600" NOx_abs="14.611511" fuel_abs="19747.707015" electricity_abs="0"/>
    </tripinfo>
    <tripinfo id="E0__0__motorbike.3" depart="9.00" departLane="E0_2" departPos="2.10" departPosLat="0.00" departSpeed="0.00" departDelay="1.29" arrival="48.00" arrivalLane="E1_1" arrivalPos="153.25" arrivalPosLat="0.00" arrivalSpeed="9.93" duration="39.00" routeLength="297.83" waitingTime="0.00" waitingCount="0" stopTime="0.00" timeLoss="9.21" rerouteNo="0" devices="tripinfo_E0__0__motorbike.3 emissions_E0__0__motorbike.3" vType="motorbike" speedFactor="0.93" vaporized="">
        <emissions CO_abs="2770.687863" CO2_abs="69763.336454" HC_abs="11.800225" PMx_abs="3.691854" NOx_abs="15.999052" fuel_abs="22254.030620" electricity_abs="0"/>
    </tripinfo>
    <tripinfo id="-E1__0__motorbike.3" depart="10.00" departLane="-E1_1" departPos="2.10" departPosLat="0.00" departSpeed="0.00" departDelay="0.69" arrival="48.00" arrivalLane="E2_1" arrivalPos="144.59" arrivalPosLat="0.00" arrivalSpeed="9.53" duration="38.00" routeLength="305.57" waitingTime="0.00" waitingCount="0" stopTime="0.00" timeLoss="5.82" rerouteNo="0" devices="tripinfo_-E1__0__motorbike.3 emissions_-E1__0__motorbike.3" vType="motorbike" speedFactor="0.88" vaporized="">
        <emissions CO_abs="2463.075992" CO2_abs="72504.472453" HC_abs="10.740833" PMx_abs="3.372417" NOx_abs="16.899518" fuel_abs="23128.290535" electricity_abs="0"/>
    </tripinfo>
    <tripinfo id="-E8__0__motorbike.7" depart="14.00" departLane="-E8_1" departPos="2.10" departPosLat="0.00" departSpeed="0.00" departDelay="1.00" arrival="48.00" arrivalLane="E9_1" arrivalPos="137.53" arrivalPosLat="0.00" arrivalSpeed="10.50" duration="34.00" routeLength="269.96" waitingTime="0.00" waitingCount="0" stopTime="0.00" timeLoss="8.73" rerouteNo="0" devices="tripinfo_-E8__0__motorbike.7 emissions_-E8__0__motorbike.7" vType="motorbike" speedFactor="1.04" vaporized="">
        <emissions CO_abs="3035.118245" CO2_abs="85155.391457" HC_abs="13.303414" PMx_abs="4.282158" NOx_abs="19.354170" fuel_abs="27163.918935" electricity_abs="0"/>
    </tripinfo>
    <tripinfo id="-E8__0__motorbike.4" depart="9.00" departLane="-E8_2" departPos="2.10" departPosLat="0.00" departSpeed="0.00" departDelay="1.60" arrival="49.00" arrivalLane="E9_1" arrivalPos="137.53" arrivalPosLat="0.20" arrivalSpeed="10.61" duration="40.00" routeLength="269.96" waitingTime="2.00" waitingCount="1" stopTime="0.00" timeLoss="13.90" rerouteNo="0" devices="tripinfo_-E8__0__motorbike.4 emissions_-E8__0__motorbike.4" vType="motorbike" speedFactor="0.97" vaporized="">
        <emissions CO_abs="4026.163176" CO2_abs="95720.698843" HC_abs="16.885946" PMx_abs="5.191698" NOx_abs="22.118196" fuel_abs="30534.284752" electricity_abs="0"/>
    </tripinfo>
    <tripinfo id="-E1__0__motorbike.4" depart="12.00" departLane="-E1_2" departPos="2.10" departPosLat="0.00" departSpeed="0.00" departDelay="0.74" arrival="49.00" arrivalLane="E2_2" arrivalPos="144.59" arrivalPosLat="0.00" arrivalSpeed="10.14" duration="37.00" routeLength="305.57" waitingTime="0.00" waitingCount="0" stopTime="0.00" timeLoss="6.30" rerouteNo="0" devices="tripinfo_-E1__0__motorbike.4 emissions_-E1__0__motorbike.4" vType="motorbike" speedFactor="0.92" vaporized="">
        <emissions CO_abs="2602.901704" CO2_abs="81190.381543" HC_abs="11.476843" PMx_abs="3.616035" NOx_abs="18.998595" fuel_abs="25898.952756" electricity_abs="0"/>
    </tripinfo>
    <tripinfo id="E0__0__car.3" depart="10.00" departLane="E0_1" departPos="4.60" departPosLat="0.00" departSpeed="0.00" departDelay="2.05" arrival="51.00" arrivalLane="E1_2" arrivalPos="153.25" arrivalPosLat="0.00" arrivalSpeed="10.08" duration="41.00" routeLength="295.33" waitingTime="0.00" waitingCount="0" stopTime="0.00" timeLoss="11.63" rerouteNo="0" devices="tripinfo_E0__0__car.3 emissions_E0__0__car.3" vType="car" speedFactor="0.95" vaporized="">
        <emissions CO_abs="2334.192233" CO2_abs="106064.713577" HC_abs="13.062161" PMx_abs="1.703510" NOx_abs="42.691989" fuel_abs="33830.377589" electricity_abs="0"/>
    </tripinfo>
    <tripinfo id="E0__0__motorbike.7" depart="13.00" departLane="E0_1" departPos="2.10" departPosLat="0.00" departSpeed="0.00" departDelay="0.68" arrival="52.00" arrivalLane="E1_1" arrivalPos="153.25" arrivalPosLat="0.00" arrivalSpeed="10.39" duration="39.00" routeLength="297.83" waitingTime="0.00" waitingCount="0" stopTime="0.00" timeLoss="11.20" rerouteNo="0" devices="tripinfo_E0__0__motorbike.7 emissions_E0__0__motorbike.7" vType="motorbike" speedFactor="1.20" vaporized="">
        <emissions CO_abs="2951.095848" CO2_abs="81197.246388" HC_abs="12.748670" PMx_abs="4.003994" NOx_abs="18.770888" fuel_abs="25901.267559" electricity_abs="0"/>
    </tripinfo>
    <tripinfo id="-E9__0__motorbike.3" depart="11.00" departLane="-E9_3" departPos="2.10" departPosLat="0.00" departSpeed="0.00" departDelay="0.76" arrival="53.00" arrivalLane="E7_2" arrivalPos="144.88" arrivalPosLat="0.00" arrivalSpeed="9.17" duration="42.00" routeLength="289.44" waitingTime="0.00" waitingCount="0" stopTime="0.00" timeLoss="9.98" rerouteNo="0" devices="tripinfo_-E9__0__motorbike.3 emissions_-E9__0__motorbike.3" vType="motorbike" speedFactor="0.86" vaporized="">
        <emissions CO_abs="3251.682421" CO2_abs="88421.190765" HC_abs="13.917090" PMx_abs="4.309071" NOx_abs="20.633424" fuel_abs="28205.668334" electricity_abs="0"/>
    </tripinfo>
    <tripinfo id="-E1__0__car.6" depart="17.00" departLane="-E1_1" departPos="4.60" departPosLat="0.00" departSpeed="0.00" departDelay="0.54" arrival="53.00" arrivalLane="E2_1" arrivalPos="144.59" arrivalPosLat="0.00" arrivalSpeed="10.34" duration="36.00" routeLength="303.07" waitingTime="0.00" waitingCount="0" stopTime="0.00" timeLoss="6.25" rerouteNo="0" devices="tripinfo_-E1__0__car.6 emissions_-E1__0__car.6" vType="car" speedFactor="0.97" vaporized="">
        <emissions CO_abs="1740.842135" CO2_abs="95834.282847" HC_abs="10.106313" PMx_abs="1.366320" NOx_abs="37.239934" fuel_abs="30567.261773" electricity_abs="0"/>
    </tripinfo>
    <tripinfo id="-E5__0__motorbike.1" depart="4.00" departLane="-E5_2" departPos="2.10" departPosLat="0.00" departSpeed="0.00" departDelay="0.40" arrival="54.00" arrivalLane="-E0_2" arrivalPos="137.59" arrivalPosLat="0.00" arrivalSpeed="10.03" duration="50.00" routeLength="438.71" waitingTime="0.00" waitingCount="0" stopTime="0.00" timeLoss="7.36" rerouteNo="0" devices="tripinfo_-E5__0__motorbike.1 emissions_-E5__0__motorbike.1" vType="motorbike" speedFactor="0.96" vaporized="">
        <emissions CO_abs="3098.478385" CO2_abs="105538.063630" HC_abs="14.008612" PMx_abs="4.505363" NOx_abs="24.587308" fuel_abs="33665.544257" electricity_abs="0"/>
    </tripinfo>
    <tripinfo id="-E4__0__motorbike.1" depart="1.00" departLane="-E4_2" departPos="2.10" departPosLat="0.00" departSpeed="0.00" departDelay="0.71" arrival="55.00" arrivalLane="-E0_1" arrivalPos="137.59" arrivalPosLat="0.00" arrivalSpeed="9.19" duration="54.00" routeLength="432.61" waitingTime="0.00" waitingCount="0" stopTime="0.00" timeLoss="7.80" rerouteNo="0" devices="tripinfo_-E4__0__motorbike.1 emissions_-E4__0__motorbike.1" vType="motorbike" speedFactor="0.87" vaporized="">
        <emissions CO_abs="3217.155954" CO2_abs="100526.173797" HC_abs="14.141843" PMx_abs="4.429805" NOx_abs="23.621660" fuel_abs="32066.893360" electricity_abs="0"/>
    </tripinfo>
    <tripinfo id="-E9__0__car.1" depart="13.00" departLane="-E9_1" departPos="4.60" departPosLat="0.00" departSpeed="0.00" departDelay="2.61" arrival="55.00" arrivalLane="E7_1" arrivalPos="144.88" arrivalPosLat="0.00" arrivalSpeed="8.58" duration="42.00" routeLength="286.94" waitingTime="0.00" waitingCount="0" stopTime="0.00" timeLoss="9.86" rerouteNo="0" devices="tripinfo_-E9__0__car.1 emissions_-E9__0__car.1" vType="car" speedFactor="0.84" vaporized="">
        <emissions CO_abs="2254.346424" CO2_abs="97088.374807" HC_abs="12.473497" PMx_abs="1.492180" NOx_abs="38.816124" fuel_abs="30967.424196" electricity_abs="0"/>
    </tripinfo>
    <tripinfo id="E0__0__motorbike.9" depart="18.00" departLane="E0_3" departPos="2.10" departPosLat="0.00" departSpeed="0.00" departDelay="0.63" arrival="55.00" arrivalLane="E1_2" arrivalPos="153.25" arrivalPosLat="0.00" arrivalSpeed="10.63" duration="37.00" routeLength="297.83" waitingTime="1.00" waitingCount="1" stopTime="0.00" timeLoss="9.16" rerouteNo="0" devices="tripinfo_E0__0__motorbike.9 emissions_E0__0__motorbike.9" vType="motorbike" speedFactor="1.05" vaporized="">
        <emissions CO_abs="2914.131529" CO2_abs="84641.835560" HC_abs="12.731254" PMx_abs="4.021784" NOx_abs="19.611912" fuel_abs="26999.995140" electricity_abs="0"/>
    </tripinfo>
    <tripinfo id="-E4__0__motorbike.3" depart="3.00" departLane="-E4_1" departPos="2.10" departPosLat="0.00" departSpeed="0.00" departDelay="0.69" arrival="56.00" arrivalLane="-E0_2" arrivalPos="137.59" arrivalPosLat="0.00" arrivalSpeed="11.07" duration="53.00" routeLength="432.61" waitingTime="0.00" waitingCount="0" stopTime="0.00" timeLoss="12.03" rerouteNo="0" devices="tripinfo_-E4__0__motorbike.3 emissions_-E4__0__motorbike.3" vType="motorbike" speedFactor="1.01" vaporized="">
        <emissions CO_abs="4115.653423" CO2_abs="128037.546338" HC_abs="18.276067" PMx_abs="5.847785" NOx_abs="29.620256" fuel_abs="40842.792012" electricity_abs="0"/>
    </tripinfo>
    <tripinfo id="-E1__0__motorbike.5" depart="16.00" departLane="-E1_2" departPos="2.10" departPosLat="0.00" departSpeed="0.00" departDelay="0.92" arrival="56.00" arrivalLane="E2_2" arrivalPos="144.59" arrivalPosLat="0.00" arrivalSpeed="10.45" duration="40.00" routeLength="305.57" waitingTime="0.00" waitingCount="0" stopTime="0.00" timeLoss="10.58" rerouteNo="0" devices="tripinfo_-E1__0__motorbike.5 emissions_-E1__0__motorbike.5" vType="motorbike" speedFactor="0.97" vaporized="">
        <emissions CO_abs="3267.997864" CO2_abs="92198.108483" HC_abs="14.195901" PMx_abs="4.479041" NOx_abs="21.301359" fuel_abs="29410.443831" electricity_abs="0"/>
    </tripinfo>
    <tripinfo id="-E9__0__motorbike.4" depart="16.00" departLane="-E9_1" departPos="2.10" departPosLat="0.00" departSpeed="0.00" departDelay="0.31" arrival="56.00" arrivalLane="E7_1" arrivalPos="144.88" arrivalPosLat="0.00" arrivalSpeed="9.63" duration="40.00" routeLength="289.44" waitingTime="0.00" waitingCount="0" stopTime="0.00" timeLoss="13.36" rerouteNo="0" devices="tripinfo_-E9__0__motorbike.4 emissions_-E9__0__motorbike.4" vType="motorbike" speedFactor="1.00" vaporized="">
        <emissions CO_abs="3203.103063" CO2_abs="87790.741420" HC_abs="13.856598" PMx_abs="4.378182" NOx_abs="20.188910" fuel_abs="28004.593019" electricity_abs="0"/>
    </tripinfo>
    <tripinfo id="-E9__0__motorbike.5" depart="18.00" departLane="-E9_2" departPos="2.10" departPosLat="0.00" departSpeed="0.00" departDelay="0.98" arrival="56.00" arrivalLane="E7_2" arrivalPos="144.88" arrivalPosLat="0.00" arrivalSpeed="9.49" duration="38.00" routeLength="289.44" waitingTime="0.00" waitingCount="0" stopTime="0.00" timeLoss="7.51" rerouteNo="0" devices="tripinfo_-E9__0__motorbike.5 emissions_-E9__0__motorbike.5" vType="motorbike" speedFactor="0.88" vaporized="">
        <emissions CO_abs="2924.048900" CO2_abs="82497.554750" HC_abs="12.742226" PMx_abs="4.050770" NOx_abs="18.951932" fuel_abs="26316.078040" electricity_abs="0"/>
    </tripinfo>
    <tripinfo id="-E9__0__motorbike.2" depart="5.00" departLane="-E9_2" departPos="2.10" departPosLat="0.00" departSpeed="0.00" departDelay="0.58" arrival="57.00" arrivalLane="E8_3" arrivalPos="125.44" arrivalPosLat="0.00" arrivalSpeed="10.46" duration="52.00" routeLength="285.67" waitingTime="13.00" waitingCount="1" stopTime="0.00" timeLoss="25.36" rerouteNo="0" devices="tripinfo_-E9__0__motorbike.2 emissions_-E9__0__motorbike.2" vType="motorbike" speedFactor="0.99" vaporized="">
        <emissions CO_abs="5852.835134" CO2_abs="105524.231917" HC_abs="23.293424" PMx_abs="6.798035" NOx_abs="24.772519" fuel_abs="33661.787211" electricity_abs="0"/>
    </tripinfo>
    <tripinfo id="-E7__0__motorbike.1" depart="9.00" departLane="-E7_2" departPos="2.10" departPosLat="0.00" departSpeed="0.00" departDelay="1.45" arrival="57.00" arrivalLane="E4_1" arrivalPos="141.64" arrivalPosLat="0.00" arrivalSpeed="10.93" duration="48.00" routeLength="417.85" waitingTime="0.00" waitingCount="0" stopTime="0.00" timeLoss="8.97" rerouteNo="0" devices="tripinfo_-E7__0__motorbike.1 emissions_-E7__0__motorbike.1" vType="motorbike" speedFactor="1.00" vaporized="">
        <emissions CO_abs="3588.411950" CO2_abs="115214.299056" HC_abs="16.107128" PMx_abs="5.208067" NOx_abs="26.556038" fuel_abs="36752.253966" electricity_abs="0"/>
    </tripinfo>
    <tripinfo id="-E5__0__motorbike.2" depart="9.00" departLane="-E5_2" departPos="2.10" departPosLat="0.00" departSpeed="0.00" departDelay="0.21" arrival="57.00" arrivalLane="E8_1" arrivalPos="125.44" arrivalPosLat="0.00" arrivalSpeed="9.78" duration="48.00" routeLength="388.49" waitingTime="0.00" waitingCount="0" stopTime="0.00" timeLoss="9.31" rerouteNo="0" devices="tripinfo_-E5__0__motorbike.2 emissions_-E5__0__motorbike.2" vType="motorbike" speedFactor="0.94" vaporized="">
        <emissions CO_abs="3429.552587" CO2_abs="107639.318126" HC_abs="15.163112" PMx_abs="4.794477" NOx_abs="25.142256" fuel_abs="34335.908032" electricity_abs="0"/>
    </tripinfo>
    <tripinfo id="E0__0__car.5" depart="17.00" departLane="E0_2" departPos="4.60" departPosLat="0.00" departSpeed="0.00" departDelay="0.25" arrival="57.00" arrivalLane="E1_2" arrivalPos="153.25" arrivalPosLat="0.00" arrivalSpeed="10.61" duration="40.00" routeLength="295.33" waitingTime="0.00" waitingCount="0" stopTime="0.00" timeLoss="12.38" rerouteNo="0" devices="tripinfo_E0__0__car.5 emissions_E0__0__car.5" vType="car" speedFactor="1.00" vaporized="">
        <emissions CO_abs="2417.710484" CO2_abs="105982.016751" HC_abs="13.442841" PMx_abs="1.727088" NOx_abs="42.814187" fuel_abs="33804.026995" electricity_abs="0"/>
    </tripinfo>
    <tripinfo id="-E9__0__motorbike.7" depart="18.00" departLane="-E9_3" departPos="2.10" departPosLat="0.00" departSpeed="0.00" departDelay="0.06" arrival="57.00" arrivalLane="E7_2" arrivalPos="144.88" arrivalPosLat="0.05" arrivalSpeed="9.73" duration="39.00" routeLength="289.44" waitingTime="0.00" waitingCount="0" stopTime="0.00" timeLoss="10.38" rerouteNo="0" devices="tripinfo_-E9__0__motorbike.7 emissions_-E9__0__motorbike.7" vType="motorbike" speedFactor="0.94" vaporized="">
        <emissions CO_abs="3147.861307" CO2_abs="87378.155056" HC_abs="13.605213" PMx_abs="4.271230" NOx_abs="20.226551" fuel_abs="27872.938947" electricity_abs="0"/>
    </tripinfo>
    <tripinfo id="-E4__0__motorbike.0" depart="1.00" departLane="-E4_3" departPos="2.10" departPosLat="0.00" departSpeed="0.00" departDelay="0.98" arrival="58.00" arrivalLane="E5_2" arrivalPos="132.02" arrivalPosLat="0.00" arrivalSpeed="9.67" duration="57.00" routeLength="299.01" waitingTime="17.00" waitingCount="1" stopTime="0.00" timeLoss="28.13" rerouteNo="0" devices="tripinfo_-E4__0__motorbike.0 emissions_-E4__0__motorbike.0" vType="motorbike" speedFactor="0.94" vaporized="">
        <emissions CO_abs="6354.849831" CO2_abs="108690.249649" HC_abs="25.026891" PMx_abs="7.207222" NOx_abs="25.713022" fuel_abs="34671.780444" electricity_abs="0"/>
    </tripinfo>
    <tripinfo id="-E9__0__car.2" depart="21.00" departLane="-E9_2" departPos="4.60" departPosLat="0.00" departSpeed="0.00" departDelay="0.50" arrival="58.00" arrivalLane="E7_1" arrivalPos="144.88" arrivalPosLat="0.00" arrivalSpeed="10.93" duration="37.00" routeLength="286.94" waitingTime="0.00" waitingCount="0" stopTime="0.00" timeLoss="10.21" rerouteNo="0" devices="tripinfo_-E9__0__car.2 emissions_-E9__0__car.2" vType="car" speedFactor="1.06" vaporized="">
        <emissions CO_abs="2023.994125" CO2_abs="96788.442897" HC_abs="11.443058" PMx_abs="1.575425" NOx_abs="39.055254" fuel_abs="30871.535842" electricity_abs="0"/>
    </tripinfo>
    <tripinfo id="-E8__0__car.1" depart="25.00" departLane="-E8_2" departPos="4.60" departPosLat="0.00" departSpeed="0.00" departDelay="0.94" arrival="58.00" arrivalLane="E9_1" arrivalPos="137.53" arrivalPosLat="0.00" arrivalSpeed="10.86" duration="33.00" routeLength="267.46" waitingTime="0.00" waitingCount="0" stopTime="0.00" timeLoss="7.40" rerouteNo="0" devices="tripinfo_-E8__0__car.1 emissions_-E8__0__car.1" vType="car" speedFactor="1.08" vaporized="">
        <emissions CO_abs="1784.101835" CO2_abs="92230.751227" HC_abs="10.236506" PMx_abs="1.415653" NOx_abs="36.522107" fuel_abs="29417.834290" electricity_abs="0"/>
    </tripinfo>
    <tripinfo id="-E2__0__motorbike.2" depart="2.00" departLane="-E2_1" departPos="2.10" departPosLat="0.00" departSpeed="0.00" departDelay="0.28" arrival="59.00" arrivalLane="E5_1" arrivalPos="132.02" arrivalPosLat="0.00" arrivalSpeed="8.99" duration="57.00" routeLength="429.34" waitingTime="0.00" waitingCount="0" stopTime="0.00" timeLoss="8.26" rerouteNo="0" devices="tripinfo_-E2__0__motorbike.2 emissions_-E2__0__motorbike.2" vType="motorbike" speedFactor="0.84" vaporized="">
        <emissions CO_abs="3253.163924" CO2_abs="98244.497087" HC_abs="14.118147" PMx_abs="4.355328" NOx_abs="23.243733" fuel_abs="31339.081016" electricity_abs="0"/>
    </tripinfo>
    <tripinfo id="-E7__0__motorbike.2" depart="11.00" departLane="-E7_1" departPos="2.10" departPosLat="0.00" departSpeed="0.00" departDelay="0.42" arrival="59.00" arrivalLane="E4_1" arrivalPos="141.64" arrivalPosLat="0.00" arrivalSpeed="10.86" duration="48.00" routeLength="417.85" waitingTime="0.00" waitingCount="0" stopTime="0.00" timeLoss="9.14" rerouteNo="0" devices="tripinfo_-E7__0__motorbike.2 emissions_-E7__0__motorbike.2" vType="motorbike" speedFactor="1.12" vaporized="">
        <emissions CO_abs="3477.123273" CO2_abs="113864.601351" HC_abs="15.654934" PMx_abs="5.060506" NOx_abs="26.311359" fuel_abs="36321.689250" electricity_abs="0"/>
    </tripinfo>