<?xml version="1.0" encoding="UTF-8"?>

<!-- generated on 2026-06-01 12:41:32 by Eclipse SUMO GUI Version 1.18.0
<configuration xmlns:xsi="http://www.w3.org/2001/XMLSchema-instance" xsi:noNamespaceSchemaLocation="http://sumo.dlr.de/xsd/sumoConfiguration.xsd">

    <input>
        <net-file value="Scenario/4nodes/env/4nodes.net.xml"/>
        <route-files value="Scenario/4nodes/env/../routes/vehicle.rou.xml"/>
        <additional-files value="Scenario/4nodes/env/../add/tls.add.xml,Scenario/4nodes/env/ ../add/e2.add.xml"/>
    </input>

    <output>
        <netstate-dump value="Scenario/4nodes/env/../output/e2.netstate.xml"/>
        <netstate-dump.precision value="2"/>
        <summary-output value="Scenario/4nodes/env/../output/e2_summary.output.xml"/>
        <tripinfo-output value="/home/hoanganh/Project/TSC-CoLight/deploy_4nodes.tripinfo.xml"/>
        <tripinfo-output.write-unfinished value="true"/>
    </output>

    <time>
        <begin value="0"/>
        <end value="509"/>
        <step-length value="1.0"/>
    </time>

    <processing>
        <lateral-resolution value="0.2"/>
        <time-to-teleport value="-1"/>
        <waiting-time-memory value="10000"/>
        <max-depart-delay value="100000"/>
    </processing>

    <report>
        <no-warnings value="true"/>
        <no-step-log value="true"/>
    </report>

    <emissions>
        <device.emissions.probability value="1.0"/>
    </emissions>

    <traci_server>
        <remote-port value="58305"/>
    </traci_server>

    <random_number>
        <random value="true"/>
    </random_number>

    <gui_only>
        <quit-on-end value="true"/>
        <start value="true"/>
    </gui_only>

</configuration>
-->

<tripinfos xmlns:xsi="http://www.w3.org/2001/XMLSchema-instance" xsi:noNamespaceSchemaLocation="http://sumo.dlr.de/xsd/tripinfo_file.xsd">
    <tripinfo id="E0__0__motorbike.0" depart="4.00" departLane="E0_2" departPos="2.10" departPosLat="0.00" departSpeed="0.00" departDelay="0.42" arrival="43.00" arrivalLane="E1_2" arrivalPos="164.31" arrivalPosLat="0.00" arrivalSpeed="9.69" duration="39.00" routeLength="302.09" waitingTime="0.00" waitingCount="0" stopTime="0.00" timeLoss="7.38" rerouteNo="0" devices="tripinfo_E0__0__motorbike.0 emissions_E0__0__motorbike.0" vType="motorbike" speedFactor="0.90" vaporized="">
        <emissions CO_abs="2513.144650" CO2_abs="73154.296145" HC_abs="10.899296" PMx_abs="3.394775" NOx_abs="17.128259" fuel_abs="23335.575600" electricity_abs="0"/>
    </tripinfo>
    <tripinfo id="-E5__0__car.0" depart="5.00" departLane="-E5_3" departPos="4.60" departPosLat="0.00" departSpeed="0.00" departDelay="0.16" arrival="43.00" arrivalLane="E4_1" arrivalPos="143.61" arrivalPosLat="0.00" arrivalSpeed="10.79" duration="38.00" routeLength="318.37" waitingTime="0.00" waitingCount="0" stopTime="0.00" timeLoss="8.41" rerouteNo="0" devices="tripinfo_-E5__0__car.0 emissions_-E5__0__car.0" vType="car" speedFactor="1.03" vaporized="">
        <emissions CO_abs="1930.739035" CO2_abs="101327.244380" HC_abs="11.098825" PMx_abs="1.500536" NOx_abs="39.736154" fuel_abs="32319.290208" electricity_abs="0"/>
    </tripinfo>
    <tripinfo id="E0__0__car.0" depart="12.00" departLane="E0_2" departPos="4.60" departPosLat="0.00" departSpeed="0.00" departDelay="0.97" arrival="47.00" arrivalLane="E1_1" arrivalPos="164.31" arrivalPosLat="0.00" arrivalSpeed="10.64" duration="35.00" routeLength="299.59" waitingTime="0.00" waitingCount="0" stopTime="0.00" timeLoss="7.02" rerouteNo="0" devices="tripinfo_E0__0__car.0 emissions_E0__0__car.0" vType="car" speedFactor="1.04" vaporized="">
        <emissions CO_abs="1805.130729" CO2_abs="93403.759048" HC_abs="10.360924" PMx_abs="1.443162" NOx_abs="37.082897" fuel_abs="29791.960287" electricity_abs="0"/>
    </tripinfo>
    <tripinfo id="-E11__0__motorbike.0" depart="1.00" departLane="-E11_2" departPos="2.10" departPosLat="0.00" departSpeed="0.00" departDelay="0.16" arrival="55.00" arrivalLane="E10_1" arrivalPos="216.74" arrivalPosLat="0.00" arrivalSpeed="10.61" duration="54.00" routeLength="497.86" waitingTime="0.00" waitingCount="0" stopTime="0.00" timeLoss="8.54" rerouteNo="0" devices="tripinfo_-E11__0__motorbike.0 emissions_-E11__0__motorbike.0" vType="motorbike" speedFactor="1.04" vaporized="">
        <emissions CO_abs="3251.132990" CO2_abs="114239.837211" HC_abs="14.750615" PMx_abs="4.720296" NOx_abs="26.786295" fuel_abs="36441.243154" electricity_abs="0"/>
    </tripinfo>
    <tripinfo id="E0__0__motorbike.2" depart="16.00" departLane="E0_3" departPos="2.10" departPosLat="0.00" departSpeed="0.00" departDelay="0.07" arrival="58.00" arrivalLane="E1_1" arrivalPos="164.31" arrivalPosLat="0.00" arrivalSpeed="8.27" duration="42.00" routeLength="302.09" waitingTime="0.00" waitingCount="0" stopTime="0.00" timeLoss="6.38" rerouteNo="0" devices="tripinfo_E0__0__motorbike.2 emissions_E0__0__motorbike.2" vType="motorbike" speedFactor="0.80" vaporized="">
        <emissions CO_abs="2494.738680" CO2_abs="71107.751034" HC_abs="10.692057" PMx_abs="3.272019" NOx_abs="16.820567" fuel_abs="22682.753895" electricity_abs="0"/>
    </tripinfo>
    <tripinfo id="-E1__0__motorbike.5" depart="22.00" departLane="-E1_2" departPos="2.10" departPosLat="0.00" departSpeed="0.00" departDelay="1.68" arrival="58.00" arrivalLane="-E0_3" arrivalPos="130.83" arrivalPosLat="-1.00" arrivalSpeed="10.44" duration="36.00" routeLength="317.65" waitingTime="0.00" waitingCount="0" stopTime="0.00" timeLoss="7.19" rerouteNo="0" devices="tripinfo_-E1__0__motorbike.5 emissions_-E1__0__motorbike.5" vType="motorbike" speedFactor="1.16" vaporized="">
        <emissions CO_abs="2485.601118" CO2_abs="75361.384154" HC_abs="10.960032" PMx_abs="3.480796" NOx_abs="17.478099" fuel_abs="24039.576861" electricity_abs="0"/>
    </tripinfo>
    <tripinfo id="-E11__0__motorbike.1" depart="5.00" departLane="-E11_1" departPos="2.10" departPosLat="0.00" departSpeed="0.00" departDelay="0.84" arrival="60.00" arrivalLane="E10_1" arrivalPos="216.74" arrivalPosLat="0.00" arrivalSpeed="11.05" duration="55.00" routeLength="497.86" waitingTime="0.00" waitingCount="0" stopTime="0.00" timeLoss="8.79" rerouteNo="0" devices="tripinfo_-E11__0__motorbike.1 emissions_-E11__0__motorbike.1" vType="motorbike" speedFactor="1.11" vaporized="">
        <emissions CO_abs="3309.201517" CO2_abs="109927.394478" HC_abs="14.903210" PMx_abs="4.792446" NOx_abs="25.534484" fuel_abs="35065.707409" electricity_abs="0"/>
    </tripinfo>
    <tripinfo id="-E8__0__motorbike.0" depart="2.00" departLane="-E8_1" departPos="2.10" departPosLat="0.00" departSpeed="0.00" departDelay="0.28" arrival="62.00" arrivalLane="E5_1" arrivalPos="170.02" arrivalPosLat="0.00" arrivalSpeed="11.03" duration="60.00" routeLength="541.19" waitingTime="0.00" waitingCount="0" stopTime="0.00" timeLoss="9.84" rerouteNo="0" devices="tripinfo_-E8__0__motorbike.0 emissions_-E8__0__motorbike.0" vType="motorbike" speedFactor="1.09" vaporized="">
        <emissions CO_abs="3800.755879" CO2_abs="131791.587260" HC_abs="17.257555" PMx_abs="5.560324" NOx_abs="30.721452" fuel_abs="42040.107330" electricity_abs="0"/>
    </tripinfo>
    <tripinfo id="-E9__0__car.1" depart="15.00" departLane="-E9_2" departPos="4.60" departPosLat="0.00" departSpeed="0.00" departDelay="1.33" arrival="62.00" arrivalLane="E8_2" arrivalPos="201.31" arrivalPosLat="0.00" arrivalSpeed="10.57" duration="47.00" routeLength="418.76" waitingTime="0.00" waitingCount="0" stopTime="0.00" timeLoss="8.36" rerouteNo="0" devices="tripinfo_-E9__0__car.1 emissions_-E9__0__car.1" vType="car" speedFactor="1.03" vaporized="">
        <emissions CO_abs="2013.600719" CO2_abs="121168.231232" HC_abs="11.914772" PMx_abs="1.647988" NOx_abs="46.373803" fuel_abs="38647.760075" electricity_abs="0"/>
    </tripinfo>
    <tripinfo id="-E5__0__car.1" depart="26.00" departLane="-E5_1" departPos="4.60" departPosLat="0.00" departSpeed="0.00" departDelay="0.20" arrival="62.00" arrivalLane="E4_1" arrivalPos="143.61" arrivalPosLat="0.00" arrivalSpeed="10.40" duration="36.00" routeLength="318.37" waitingTime="0.00" waitingCount="0" stopTime="0.00" timeLoss="6.78" rerouteNo="0" devices="tripinfo_-E5__0__car.1 emissions_-E5__0__car.1" vType="car" speedFactor="1.25" vaporized="">
        <emissions CO_abs="1668.961733" CO2_abs="93992.548921" HC_abs="9.745982" PMx_abs="1.382112" NOx_abs="36.788297" fuel_abs="29979.752821" electricity_abs="0"/>
    </tripinfo>
    <tripinfo id="-E9__0__motorbike.3" depart="16.00" departLane="-E9_3" departPos="2.10" departPosLat="0.00" departSpeed="0.00" departDelay="0.41" arrival="64.00" arrivalLane="E8_2" arrivalPos="201.31" arrivalPosLat="0.00" arrivalSpeed="10.69" duration="48.00" routeLength="421.26" waitingTime="0.00" waitingCount="0" stopTime="0.00" timeLoss="7.82" rerouteNo="0" devices="tripinfo_-E9__0__motorbike.3 emissions_-E9__0__motorbike.3" vType="motorbike" speedFactor="0.97" vaporized="">
        <emissions CO_abs="3314.048473" CO2_abs="112743.976866" HC_abs="14.945222" PMx_abs="4.782187" NOx_abs="26.350487" fuel_abs="35964.137876" electricity_abs="0"/>
    </tripinfo>
    <tripinfo id="-E8__0__motorbike.1" depart="4.00" departLane="-E8_1" departPos="2.10" departPosLat="0.00" departSpeed="0.00" departDelay="0.53" arrival="65.00" arrivalLane="E5_1" arrivalPos="170.02" arrivalPosLat="0.00" arrivalSpeed="11.06" duration="61.00" routeLength="541.19" waitingTime="0.00" waitingCount="0" stopTime="0.00" timeLoss="11.11" rerouteNo="0" devices="tripinfo_-E8__0__motorbike.1 emissions_-E8__0__motorbike.1" vType="motorbike" speedFactor="1.11" vaporized="">
        <emissions CO_abs="4063.489762" CO2_abs="130689.852128" HC_abs="18.178489" PMx_abs="5.832829" NOx_abs="30.295308" fuel_abs="41688.773730" electricity_abs="0"/>
    </tripinfo>
    <tripinfo id="-E9__0__motorbike.2" depart="17.00" departLane="-E9_2" departPos="2.10" departPosLat="0.00" departSpeed="0.00" departDelay="1.92" arrival="66.00" arrivalLane="E8_2" arrivalPos="201.31" arrivalPosLat="0.00" arrivalSpeed="10.59" duration="49.00" routeLength="421.26" waitingTime="0.00" waitingCount="0" stopTime="0.00" timeLoss="9.74" rerouteNo="0" devices="tripinfo_-E9__0__motorbike.2 emissions_-E9__0__motorbike.2" vType="motorbike" speedFactor="1.16" vaporized="">
        <emissions CO_abs="3417.394095" CO2_abs="107437.786343" HC_abs="15.213239" PMx_abs="4.871320" NOx_abs="24.874608" fuel_abs="34271.627648" electricity_abs="0"/>
    </tripinfo>
    <tripinfo id="E0__0__motorbike.5" depart="29.00" departLane="E0_2" departPos="2.10" departPosLat="0.00" departSpeed="0.00" departDelay="0.21" arrival="67.00" arrivalLane="E1_2" arrivalPos="164.31" arrivalPosLat="0.00" arrivalSpeed="10.93" duration="38.00" routeLength="302.09" waitingTime="0.00" waitingCount="0" stopTime="0.00" timeLoss="10.03" rerouteNo="0" devices="tripinfo_E0__0__motorbike.5 emissions_E0__0__motorbike.5" vType="motorbike" speedFactor="1.08" vaporized="">
        <emissions CO_abs="3087.606937" CO2_abs="87093.550032" HC_abs="13.394600" PMx_abs="4.211007" NOx_abs="20.175407" fuel_abs="27782.107526" electricity_abs="0"/>
    </tripinfo>
    <tripinfo id="-E9__0__car.0" depart="4.00" departLane="-E9_2" departPos="4.60" departPosLat="0.00" departSpeed="0.00" departDelay="0.57" arrival="70.00" arrivalLane="E5_2" arrivalPos="170.02" arrivalPosLat="0.00" arrivalSpeed="10.20" duration="66.00" routeLength="568.20" waitingTime="0.00" waitingCount="0" stopTime="0.00" timeLoss="10.27" rerouteNo="0" devices="tripinfo_-E9__0__car.0 emissions_-E9__0__car.0" vType="car" speedFactor="0.94" vaporized="">
        <emissions CO_abs="2598.828638" CO2_abs="154352.915240" HC_abs="15.306726" PMx_abs="1.974017" NOx_abs="58.438927" fuel_abs="49232.474324" electricity_abs="0"/>
    </tripinfo>
    <tripinfo id="-E5__0__motorbike.4" depart="36.00" departLane="-E5_3" departPos="2.10" departPosLat="0.00" departSpeed="0.00" departDelay="0.30" arrival="73.00" arrivalLane="E4_1" arrivalPos="143.61" arrivalPosLat="0.00" arrivalSpeed="10.80" duration="37.00" routeLength="320.87" waitingTime="0.00" waitingCount="0" stopTime="0.00" timeLoss="6.89" rerouteNo="0" devices="tripinfo_-E5__0__motorbike.4 emissions_-E5__0__motorbike.4" vType="motorbike" speedFactor="1.16" vaporized="">
        <emissions CO_abs="2624.679556" CO2_abs="79246.829080" HC_abs="11.612984" PMx_abs="3.721487" NOx_abs="18.247805" fuel_abs="25279.027657" electricity_abs="0"/>
    </tripinfo>
    <tripinfo id="-E10__0__car.0" depart="1.00" departLane="-E10_1" departPos="4.60" departPosLat="0.00" departSpeed="0.00" departDelay="0.97" arrival="75.00" arrivalLane="E9_1" arrivalPos="212.89" arrivalPosLat="0.00" arrivalSpeed="10.94" duration="74.00" routeLength="674.26" waitingTime="0.00" waitingCount="0" stopTime="0.00" timeLoss="11.35" rerouteNo="0" devices="tripinfo_-E10__0__car.0 emissions_-E10__0__car.0" vType="car" speedFactor="1.05" vaporized="">
        <emissions CO_abs="2882.669146" CO2_abs="186176.492713" HC_abs="17.327992" PMx_abs="2.386401" NOx_abs="70.255875" fuel_abs="59382.791250" electricity_abs="0"/>
    </tripinfo>
    <tripinfo id="-E8__0__car.0" depart="16.00" departLane="-E8_1" departPos="4.60" departPosLat="0.00" departSpeed="0.00" departDelay="1.99" arrival="78.00" arrivalLane="E5_2" arrivalPos="170.02" arrivalPosLat="0.00" arrivalSpeed="10.07" duration="62.00" routeLength="538.69" waitingTime="0.00" waitingCount="0" stopTime="0.00" timeLoss="10.42" rerouteNo="0" devices="tripinfo_-E8__0__car.0 emissions_-E8__0__car.0" vType="car" speedFactor="0.97" vaporized="">
        <emissions CO_abs="2621.020541" CO2_abs="149994.308243" HC_abs="15.341952" PMx_abs="2.101682" NOx_abs="58.099629" fuel_abs="47842.090454" electricity_abs="0"/>
    </tripinfo>
    <tripinfo id="-E5__0__motorbike.5" depart="40.00" departLane="-E5_3" departPos="2.10" departPosLat="0.00" departSpeed="0.00" departDelay="0.48" arrival="78.00" arrivalLane="E4_1" arrivalPos="143.61" arrivalPosLat="0.00" arrivalSpeed="10.46" duration="38.00" routeLength="320.87" waitingTime="0.00" waitingCount="0" stopTime="0.00" timeLoss="7.79" rerouteNo="0" devices="tripinfo_-E5__0__motorbike.5 emissions_-E5__0__motorbike.5" vType="motorbike" speedFactor="0.99" vaporized="">
        <emissions CO_abs="2790.149471" CO2_abs="88866.212142" HC_abs="12.384991" PMx_abs="3.924984" NOx_abs="20.755211" fuel_abs="28347.438254" electricity_abs="0"/>
    </tripinfo>
    <tripinfo id="-E1__0__motorbike.3" depart="13.00" departLane="-E1_1" departPos="2.10" departPosLat="0.00" departSpeed="0.00" departDelay="0.68" arrival="80.00" arrivalLane="E11_1" arrivalPos="274.15" arrivalPosLat="0.00" arrivalSpeed="11.01" duration="67.00" routeLength="611.25" waitingTime="0.00" waitingCount="0" stopTime="0.00" timeLoss="10.47" rerouteNo="0" devices="tripinfo_-E1__0__motorbike.3 emissions_-E1__0__motorbike.3" vType="motorbike" speedFactor="1.03" vaporized="">
        <emissions CO_abs="4088.914211" CO2_abs="136865.664521" HC_abs="18.449059" PMx_abs="5.939900" NOx_abs="31.797331" fuel_abs="43658.731699" electricity_abs="0"/>
    </tripinfo>
    <tripinfo id="-E5__0__car.2" depart="43.00" departLane="-E5_1" departPos="4.60" departPosLat="0.00" departSpeed="0.00" departDelay="0.89" arrival="80.00" arrivalLane="E4_1" arrivalPos="143.61" arrivalPosLat="0.00" arrivalSpeed="10.95" duration="37.00" routeLength="318.37" waitingTime="0.00" waitingCount="0" stopTime="0.00" timeLoss="7.66" rerouteNo="0" devices="tripinfo_-E5__0__car.2 emissions_-E5__0__car.2" vType="car" speedFactor="1.12" vaporized="">
        <emissions CO_abs="1726.375097" CO2_abs="98485.182014" HC_abs="10.098220" PMx_abs="1.382110" NOx_abs="38.095762" fuel_abs="31412.780538" electricity_abs="0"/>
    </tripinfo>
    <tripinfo id="E0__0__motorbike.8" depart="45.00" departLane="E0_3" departPos="2.10" departPosLat="0.00" departSpeed="0.00" departDelay="0.54" arrival="80.00" arrivalLane="E1_1" arrivalPos="164.31" arrivalPosLat="0.00" arrivalSpeed="10.38" duration="35.00" routeLength="302.09" waitingTime="0.00" waitingCount="0" stopTime="0.00" timeLoss="6.67" rerouteNo="0" devices="tripinfo_E0__0__motorbike.8 emissions_E0__0__motorbike.8" vType="motorbike" speedFactor="1.03" vaporized="">
        <emissions CO_abs="2657.086747" CO2_abs="86430.932273" HC_abs="11.904024" PMx_abs="3.817301" NOx_abs="20.068976" fuel_abs="27570.605879" electricity_abs="0"/>
    </tripinfo>
    <tripinfo id="-E4__0__motorbike.2" depart="25.00" departLane="-E4_3" departPos="2.10" departPosLat="0.00" departSpeed="0.00" departDelay="0.31" arrival="81.00" arrivalLane="-E0_1" arrivalPos="130.83" arrivalPosLat="0.00" arrivalSpeed="10.83" duration="56.00" routeLength="516.94" waitingTime="0.00" waitingCount="0" stopTime="0.00" timeLoss="7.98" rerouteNo="0" devices="tripinfo_-E4__0__motorbike.2 emissions_-E4__0__motorbike.2" vType="motorbike" speedFactor="1.11" vaporized="">
        <emissions CO_abs="3543.679545" CO2_abs="120500.131596" HC_abs="16.094623" PMx_abs="5.222899" NOx_abs="27.892667" fuel_abs="38438.294648" electricity_abs="0"/>
    </tripinfo>
    <tripinfo id="-E4__0__car.0" depart="32.00" departLane="-E4_3" departPos="4.60" departPosLat="0.00" departSpeed="0.00" departDelay="0.06" arrival="84.00" arrivalLane="E5_2" arrivalPos="170.02" arrivalPosLat="0.00" arrivalSpeed="7.71" duration="52.00" routeLength="333.76" waitingTime="1.00" waitingCount="1" stopTime="0.00" timeLoss="11.74" rerouteNo="0" devices="tripinfo_-E4__0__car.0 emissions_-E4__0__car.0" vType="car" speedFactor="0.75" vaporized="">
        <emissions CO_abs="3222.342761" CO2_abs="118538.397201" HC_abs="17.352537" PMx_abs="1.811001" NOx_abs="47.331950" fuel_abs="37809.458892" electricity_abs="0"/>
    </tripinfo>
    <tripinfo id="-E11__0__motorbike.4" depart="24.00" departLane="-E11_1" departPos="2.10" departPosLat="0.00" departSpeed="0.00" departDelay="0.65" arrival="85.00" arrivalLane="E10_1" arrivalPos="216.74" arrivalPosLat="0.00" arrivalSpeed="9.20" duration="61.00" routeLength="497.86" waitingTime="0.00" waitingCount="0" stopTime="0.00" timeLoss="7.49" rerouteNo="0" devices="tripinfo_-E11__0__motorbike.4 emissions_-E11__0__motorbike.4" vType="motorbike" speedFactor="0.86" vaporized="">
        <emissions CO_abs="3048.087032" CO2_abs="101955.448265" HC_abs="13.432040" PMx_abs="4.127015" NOx_abs="24.415350" fuel_abs="32522.684966" electricity_abs="0"/>
    </tripinfo>
    <tripinfo id="-E1__0__motorbike.4" depart="20.00" departLane="-E1_3" departPos="2.10" departPosLat="0.00" departSpeed="0.00" departDelay="0.72" arrival="87.00" arrivalLane="E11_1" arrivalPos="274.15" arrivalPosLat="0.00" arrivalSpeed="10.50" duration="67.00" routeLength="611.25" waitingTime="0.00" waitingCount="0" stopTime="0.00" timeLoss="10.28" rerouteNo="0" devices="tripinfo_-E1__0__motorbike.4 emissions_-E1__0__motorbike.4" vType="motorbike" speedFactor="1.07" vaporized="">
        <emissions CO_abs="4086.253385" CO2_abs="140196.190689" HC_abs="18.578029" PMx_abs="6.025180" NOx_abs="32.496405" fuel_abs="44721.127745" electricity_abs="0"/>
    </tripinfo>
    <tripinfo id="-E5__0__car.4" depart="44.00" departLane="-E5_3" departPos="4.60" departPosLat="0.00" departSpeed="0.00" departDelay="0.68" arrival="87.00" arrivalLane="E4_1" arrivalPos="143.61" arrivalPosLat="0.00" arrivalSpeed="10.39" duration="43.00" routeLength="318.37" waitingTime="0.00" waitingCount="0" stopTime="0.00" timeLoss="13.02" rerouteNo="0" devices="tripinfo_-E5__0__car.4 emissions_-E5__0__car.4" vType="car" speedFactor="1.21" vaporized="">
        <emissions CO_abs="2586.638407" CO2_abs="115860.876832" HC_abs="14.431250" PMx_abs="1.835747" NOx_abs="46.379756" fuel_abs="36955.020047" electricity_abs="0"/>
    </tripinfo>
    <tripinfo id="E0__0__motorbike.10" depart="53.00" departLane="E0_1" departPos="2.10" departPosLat="0.00" departSpeed="0.00" departDelay="0.87" arrival="88.00" arrivalLane="E1_1" arrivalPos="164.31" arrivalPosLat="0.00" arrivalSpeed="10.84" duration="35.00" routeLength="302.09" waitingTime="0.00" waitingCount="0" stopTime="0.00" timeLoss="7.39" rerouteNo="0" devices="tripinfo_E0__0__motorbike.10 emissions_E0__0__motorbike.10" vType="motorbike" speedFactor="1.05" vaporized="">
        <emissions CO_abs="2569.128533" CO2_abs="82734.753537" HC_abs="11.434424" PMx_abs="3.629719" NOx_abs="19.324343" fuel_abs="26391.553464" electricity_abs="0"/>
    </tripinfo>
    <tripinfo id="-E1__0__motorbike.6" depart="27.00" departLane="-E1_2" departPos="2.10" departPosLat="0.00" departSpeed="0.00" departDelay="0.05" arrival="93.00" arrivalLane="E11_1" arrivalPos="274.15" arrivalPosLat="0.00" arrivalSpeed="11.02" duration="66.00" routeLength="611.25" waitingTime="0.00" waitingCount="0" stopTime="0.00" timeLoss="9.77" rerouteNo="0" devices="tripinfo_-E1__0__motorbike.6 emissions_-E1__0__motorbike.6" vType="motorbike" speedFactor="1.07" vaporized="">
        <emissions CO_abs="3916.718810" CO2_abs="142241.759429" HC_abs="17.990590" PMx_abs="5.830941" NOx_abs="33.194699" fuel_abs="45373.525699" electricity_abs="0"/>
    </tripinfo>
    <tripinfo id="-E11__0__car.3" depart="34.00" departLane="-E11_1" departPos="4.60" departPosLat="0.00" departSpeed="0.00" departDelay="0.34" arrival="94.00" arrivalLane="E10_1" arrivalPos="216.74" arrivalPosLat="0.00" arrivalSpeed="9.20" duration="60.00" routeLength="495.36" waitingTime="0.00" waitingCount="0" stopTime="0.00" timeLoss="7.93" rerouteNo="0" devices="tripinfo_-E11__0__car.3 emissions_-E11__0__car.3" vType="car" speedFactor="0.87" vaporized="">
        <emissions CO_abs="2420.685676" CO2_abs="130756.451841" HC_abs="13.958233" PMx_abs="1.684623" NOx_abs="49.819946" fuel_abs="41706.239640" electricity_abs="0"/>
    </tripinfo>
    <tripinfo id="-E9__0__motorbike.7" depart="45.00" departLane="-E9_3" departPos="2.10" departPosLat="0.00" departSpeed="0.00" departDelay="1.72" arrival="94.00" arrivalLane="E8_1" arrivalPos="201.31" arrivalPosLat="0.00" arrivalSpeed="10.05" duration="49.00" routeLength="421.26" waitingTime="0.00" waitingCount="0" stopTime="0.00" timeLoss="7.21" rerouteNo="0" devices="tripinfo_-E9__0__motorbike.7 emissions_-E9__0__motorbike.7" vType="motorbike" speedFactor="0.94" vaporized="">
        <emissions CO_abs="2870.693371" CO2_abs="91290.692729" HC_abs="12.727848" PMx_abs="4.026117" NOx_abs="21.351437" fuel_abs="29120.822902" electricity_abs="0"/>
    </tripinfo>
    <tripinfo id="-E4__0__motorbike.3" depart="31.00" departLane="-E4_1" departPos="2.10" departPosLat="0.00" departSpeed="0.00" departDelay="0.49" arrival="95.00" arrivalLane="E1_2" arrivalPos="164.31" arrivalPosLat="0.00" arrivalSpeed="9.69" duration="64.00" routeLength="568.61" waitingTime="0.00" waitingCount="0" stopTime="0.00" timeLoss="7.71" rerouteNo="0" devices="tripinfo_-E4__0__motorbike.3 emissions_-E4__0__motorbike.3" vType="motorbike" speedFactor="0.93" vaporized="">
        <emissions CO_abs="3245.234335" CO2_abs="116733.470659" HC_abs="14.688009" PMx_abs="4.642475" NOx_abs="27.654943" fuel_abs="37236.653955" electricity_abs="0"/>
    </tripinfo>
    <tripinfo id="-E4__0__motorbike.5" depart="40.00" departLane="-E4_1" departPos="2.10" departPosLat="0.00" departSpeed="0.00" departDelay="0.18" arrival="97.00" arrivalLane="-E0_1" arrivalPos="130.83" arrivalPosLat="0.00" arrivalSpeed="10.50" duration="57.00" routeLength="516.94" waitingTime="0.00" waitingCount="0" stopTime="0.00" timeLoss="9.53" rerouteNo="0" devices="tripinfo_-E4__0__motorbike.5 emissions_-E4__0__motorbike.5" vType="motorbike" speedFactor="1.07" vaporized="">
        <emissions CO_abs="3638.252064" CO2_abs="124050.640058" HC_abs="16.482812" PMx_abs="5.320270" NOx_abs="28.828602" fuel_abs="39570.866120" electricity_abs="0"/>
    </tripinfo>
    <tripinfo id="-E9__0__motorbike.8" depart="46.00" departLane="-E9_1" departPos="2.10" departPosLat="0.00" departSpeed="0.00" departDelay="0.10" arrival="98.00" arrivalLane="E8_1" arrivalPos="201.31" arrivalPosLat="0.00" arrivalSpeed="10.65" duration="52.00" routeLength="421.26" waitingTime="0.00" waitingCount="0" stopTime="0.00" timeLoss="13.33" rerouteNo="0" devices="tripinfo_-E9__0__motorbike.8 emissions_-E9__0__motorbike.8" vType="motorbike" speedFactor="1.10" vaporized="">
        <emissions CO_abs="4141.814363" CO2_abs="124286.836246" HC_abs="18.211141" PMx_abs="5.773881" NOx_abs="28.822785" fuel_abs="39646.371229" electricity_abs="0"/>
    </tripinfo>
    <tripinfo id="-E4__0__motorbike.0" depart="15.00" departLane="-E4_1" departPos="2.10" departPosLat="0.00" departSpeed="0.00" departDelay="0.64" arrival="101.00" arrivalLane="E1_1" arrivalPos="164.31" arrivalPosLat="0.00" arrivalSpeed="8.30" duration="86.00" routeLength="568.61" waitingTime="6.00" waitingCount="1" stopTime="0.00" timeLoss="19.47" rerouteNo="0" devices="tripinfo_-E4__0__motorbike.0 emissions_-E4__0__motorbike.0" vType="motorbike" speedFactor="0.78" vaporized="">
        <emissions CO_abs="5816.294432" CO2_abs="139792.896992" HC_abs="23.850570" PMx_abs="6.949775" NOx_abs="33.740084" fuel_abs="44592.835092" electricity_abs="0"/>
    </tripinfo>
    <tripinfo id="-E10__0__motorbike.1" depart="26.00" departLane="-E10_1" departPos="2.10" departPosLat="0.00" departSpeed="0.00" departDelay="0.78" arrival="101.00" arrivalLane="E9_1" arrivalPos="212.89" arrivalPosLat="0.00" arrivalSpeed="10.40" duration="75.00" routeLength="676.76" waitingTime="0.00" waitingCount="0" stopTime="0.00" timeLoss="11.18" rerouteNo="0" devices="tripinfo_-E10__0__motorbike.1 emissions_-E10__0__motorbike.1" vType="motorbike" speedFactor="0.98" vaporized="">
        <emissions CO_abs="4333.770390" CO2_abs="153679.411120" HC_abs="19.763136" PMx_abs="6.371872" NOx_abs="35.896887" fuel_abs="49022.050285" electricity_abs="0"/>
    </tripinfo>
    <tripinfo id="-E5__0__car.5" depart="59.00" departLane="-E5_2" departPos="4.60" departPosLat="0.00" departSpeed="0.00" departDelay="0.28" arrival="102.00" arrivalLane="E4_1" arrivalPos="143.61" arrivalPosLat="0.00" arrivalSpeed="8.63" duration="43.00" routeLength="318.37" waitingTime="0.00" waitingCount="0" stopTime="0.00" timeLoss="6.13" rerouteNo="0" devices="tripinfo_-E5__0__car.5 emissions_-E5__0__car.5" vType="car" speedFactor="0.81" vaporized="">
        <emissions CO_abs="2139.603405" CO2_abs="96897.585181" HC_abs="11.930344" PMx_abs="1.383130" NOx_abs="38.003354" fuel_abs="30906.623905" electricity_abs="0"/>
    </tripinfo>
    <tripinfo id="-E5__1__motorbike.0" depart="62.00" departLane="-E5_1" departPos="2.10" departPosLat="0.00" departSpeed="0.00" departDelay="0.79" arrival="102.00" arrivalLane="E4_2" arrivalPos="143.61" arrivalPosLat="0.00" arrivalSpeed="9.78" duration="40.00" routeLength="320.87" waitingTime="0.00" waitingCount="0" stopTime="0.00" timeLoss="7.91" rerouteNo="0" devices="tripinfo_-E5__1__motorbike.0 emissions_-E5__1__motorbike.0" vType="motorbike" speedFactor="0.93" vaporized="">
        <emissions CO_abs="2710.123846" CO2_abs="81757.817770" HC_abs="11.877099" PMx_abs="3.736270" NOx_abs="19.080699" fuel_abs="26079.993149" electricity_abs="0"/>
    </tripinfo>
    <tripinfo id="-E8__0__motorbike.4" depart="13.00" departLane="-E8_1" departPos="2.10" departPosLat="0.00" departSpeed="0.00" departDelay="0.59" arrival="103.00" arrivalLane="E9_2" arrivalPos="212.89" arrivalPosLat="0.20" arrivalSpeed="10.53" duration="90.00" routeLength="437.18" waitingTime="33.00" waitingCount="1" stopTime="0.00" timeLoss="49.82" rerouteNo="0" devices="tripinfo_-E8__0__motorbike.4 emissions_-E8__0__motorbike.4" vType="motorbike" speedFactor="1.08" vaporized="">
        <emissions CO_abs="10645.993945" CO2_abs="169551.609185" HC_abs="41.631334" PMx_abs="11.965841" NOx_abs="39.890536" fuel_abs="54086.516786" electricity_abs="0"/>
    </tripinfo>
    <tripinfo id="-E1__0__motorbike.2" depart="11.00" departLane="-E1_1" departPos="2.10" departPosLat="0.00" departSpeed="0.00" departDelay="0.18" arrival="104.00" arrivalLane="E10_1" arrivalPos="216.74" arrivalPosLat="1.05" arrivalSpeed="9.47" duration="93.00" routeLength="572.06" waitingTime="21.00" waitingCount="1" stopTime="0.00" timeLoss="34.49" rerouteNo="0" devices="tripinfo_-E1__0__motorbike.2 emissions_-E1__0__motorbike.2" vType="motorbike" speedFactor="0.90" vaporized="">
        <emissions CO_abs="8612.575761" CO2_abs="176515.720244" HC_abs="34.635153" PMx_abs="10.037637" NOx_abs="42.251848" fuel_abs="56307.364977" electricity_abs="0"/>
    </tripinfo>
    <tripinfo id="E0__0__motorbike.3" depart="18.00" departLane="E0_2" departPos="2.10" departPosLat="0.00" departSpeed="0.00" departDelay="0.63" arrival="104.00" arrivalLane="E10_1" arrivalPos="216.74" arrivalPosLat="-0.45" arrivalSpeed="10.25" duration="86.00" routeLength="556.72" waitingTime="20.00" waitingCount="1" stopTime="0.00" timeLoss="33.08" rerouteNo="0" devices="tripinfo_E0__0__motorbike.3 emissions_E0__0__motorbike.3" vType="motorbike" speedFactor="0.96" vaporized="">
        <emissions CO_abs="8073.630876" CO2_abs="162645.243567" HC_abs="32.604112" PMx_abs="9.578525" NOx_abs="38.415424" fuel_abs="51882.852134" electricity_abs="0"/>
    </tripinfo>
    <tripinfo id="-E4__0__motorbike.9" depart="48.00" departLane="-E4_1" departPos="2.10" departPosLat="0.00" departSpeed="0.00" departDelay="2.91" arrival="105.00" arrivalLane="-E0_1" arrivalPos="130.83" arrivalPosLat="0.00" arrivalSpeed="10.44" duration="57.00" routeLength="516.94" waitingTime="0.00" waitingCount="0" stopTime="0.00" timeLoss="9.20" rerouteNo="0" devices="tripinfo_-E4__0__motorbike.9 emissions_-E4__0__motorbike.9" vType="motorbike" speedFactor="1.01" vaporized="">
        <emissions CO_abs="3598.194007" CO2_abs="123740.859765" HC_abs="16.285062" PMx_abs="5.228914" NOx_abs="28.884785" fuel_abs="39472.018441" electricity_abs="0"/>
    </tripinfo>