<?xml version="1.0" encoding="UTF-8"?>

<!-- generated on 2026-06-21 11:15:16 by Eclipse SUMO GUI Version 1.18.0
<configuration xmlns:xsi="http://www.w3.org/2001/XMLSchema-instance" xsi:noNamespaceSchemaLocation="http://sumo.dlr.de/xsd/sumoConfiguration.xsd">

    <input>
        <net-file value="Scenario/3nodes/env/3nodes.net.xml"/>
        <route-files value="Scenario/3nodes/env/../routes/vehicle.rou.xml"/>
        <additional-files value="Scenario/3nodes/env/../add/tls.add.xml,Scenario/3nodes/env/ ../add/e2.add.xml"/>
    </input>

    <output>
        <netstate-dump value="Scenario/3nodes/env/../output/e2.netstate.xml"/>
        <netstate-dump.precision value="2"/>
        <summary-output value="Scenario/3nodes/env/../output/e2_summary.output.xml"/>
        <tripinfo-output value="/home/hoanganh/Project/TSC-CoLight/deploy_3nodes_medium.tripinfo.xml"/>
        <tripinfo-output.write-unfinished value="true"/>
    </output>

    <time>
        <begin value="0"/>
        <end value="504"/>
        <step-length value="1.0"/>
    </time>

    <processing>
        <lateral-resolution value="0.2"/>
        <time-to-teleport value="-1"/>
        <waiting-time-memory value="10000"/>
        <max-depart-delay value="100000"/>
    </processing>

    <report>
        <no-warnings value="true"/>
        <no-step-log value="true"/>
    </report>

    <emissions>
        <device.emissions.probability value="1.0"/>
    </emissions>

    <traci_server>
        <remote-port value="42367"/>
    </traci_server>

    <random_number>
        <random value="true"/>
    </random_number>

    <gui_only>
        <quit-on-end value="true"/>
        <start value="true"/>
    </gui_only>

</configuration>
-->

<tripinfos xmlns:xsi="http://www.w3.org/2001/XMLSchema-instance" xsi:noNamespaceSchemaLocation="http://sumo.dlr.de/xsd/tripinfo_file.xsd">
    <tripinfo id="-E8__0__car.0" depart="4.00" departLane="-E8_1" departPos="4.60" departPosLat="0.00" departSpeed="0.00" departDelay="1.69" arrival="41.00" arrivalLane="E9_1" arrivalPos="137.53" arrivalPosLat="0.00" arrivalSpeed="8.87" duration="37.00" routeLength="267.46" waitingTime="0.00" waitingCount="0" stopTime="0.00" timeLoss="5.94" rerouteNo="0" devices="tripinfo_-E8__0__car.0 emissions_-E8__0__car.0" vType="car" speedFactor="0.81" vaporized="">
        <emissions CO_abs="2006.389505" CO2_abs="91484.086959" HC_abs="11.196046" PMx_abs="1.272446" NOx_abs="35.628521" fuel_abs="29179.956966" electricity_abs="0"/>
    </tripinfo>
    <tripinfo id="-E2__0__car.0" depart="1.00" departLane="-E2_1" departPos="4.60" departPosLat="0.00" departSpeed="0.00" departDelay="0.97" arrival="42.00" arrivalLane="E1_3" arrivalPos="153.25" arrivalPosLat="0.00" arrivalSpeed="11.09" duration="41.00" routeLength="318.38" waitingTime="0.00" waitingCount="0" stopTime="0.00" timeLoss="11.79" rerouteNo="0" devices="tripinfo_-E2__0__car.0 emissions_-E2__0__car.0" vType="car" speedFactor="1.00" vaporized="">
        <emissions CO_abs="2408.554572" CO2_abs="114748.898308" HC_abs="13.602890" PMx_abs="1.832578" NOx_abs="46.014113" fuel_abs="36600.229729" electricity_abs="0"/>
    </tripinfo>
    <tripinfo id="-E2__0__car.1" depart="5.00" departLane="-E2_2" departPos="4.60" departPosLat="0.00" departSpeed="0.00" departDelay="0.46" arrival="44.00" arrivalLane="E1_3" arrivalPos="153.25" arrivalPosLat="-1.00" arrivalSpeed="10.86" duration="39.00" routeLength="318.38" waitingTime="0.00" waitingCount="0" stopTime="0.00" timeLoss="9.52" rerouteNo="0" devices="tripinfo_-E2__0__car.1 emissions_-E2__0__car.1" vType="car" speedFactor="1.04" vaporized="">
        <emissions CO_abs="1983.955258" CO2_abs="102845.182749" HC_abs="11.374052" PMx_abs="1.516201" NOx_abs="40.260067" fuel_abs="32803.480217" electricity_abs="0"/>
    </tripinfo>
    <tripinfo id="-E2__0__motorbike.0" depart="7.00" departLane="-E2_1" departPos="2.10" departPosLat="0.00" departSpeed="0.00" departDelay="1.01" arrival="49.00" arrivalLane="E1_2" arrivalPos="153.25" arrivalPosLat="0.00" arrivalSpeed="8.45" duration="42.00" routeLength="320.88" waitingTime="0.00" waitingCount="0" stopTime="0.00" timeLoss="4.75" rerouteNo="0" devices="tripinfo_-E2__0__motorbike.0 emissions_-E2__0__motorbike.0" vType="motorbike" speedFactor="0.79" vaporized="">
        <emissions CO_abs="2042.280731" CO2_abs="62494.891257" HC_abs="8.820363" PMx_abs="2.681420" NOx_abs="14.946986" fuel_abs="19935.264437" electricity_abs="0"/>
    </tripinfo>
    <tripinfo id="-E8__0__motorbike.3" depart="18.00" departLane="-E8_2" departPos="2.10" departPosLat="0.00" departSpeed="0.00" departDelay="0.14" arrival="49.00" arrivalLane="E9_1" arrivalPos="137.53" arrivalPosLat="0.00" arrivalSpeed="11.00" duration="31.00" routeLength="269.96" waitingTime="0.00" waitingCount="0" stopTime="0.00" timeLoss="5.96" rerouteNo="0" devices="tripinfo_-E8__0__motorbike.3 emissions_-E8__0__motorbike.3" vType="motorbike" speedFactor="1.06" vaporized="">
        <emissions CO_abs="2328.947948" CO2_abs="73137.986889" HC_abs="10.355484" PMx_abs="3.309011" NOx_abs="16.956458" fuel_abs="23330.316996" electricity_abs="0"/>
    </tripinfo>
    <tripinfo id="-E2__0__car.3" depart="16.00" departLane="-E2_3" departPos="4.60" departPosLat="0.00" departSpeed="0.00" departDelay="0.92" arrival="55.00" arrivalLane="E1_3" arrivalPos="153.25" arrivalPosLat="0.00" arrivalSpeed="9.52" duration="39.00" routeLength="318.38" waitingTime="0.00" waitingCount="0" stopTime="0.00" timeLoss="5.76" rerouteNo="0" devices="tripinfo_-E2__0__car.3 emissions_-E2__0__car.3" vType="car" speedFactor="0.89" vaporized="">
        <emissions CO_abs="1758.293560" CO2_abs="93895.932501" HC_abs="10.122313" PMx_abs="1.253414" NOx_abs="36.056034" fuel_abs="29949.126104" electricity_abs="0"/>
    </tripinfo>
    <tripinfo id="E0__0__car.5" depart="21.00" departLane="E0_2" departPos="4.60" departPosLat="0.00" departSpeed="0.00" departDelay="0.68" arrival="56.00" arrivalLane="E1_2" arrivalPos="153.25" arrivalPosLat="0.00" arrivalSpeed="10.36" duration="35.00" routeLength="295.33" waitingTime="0.00" waitingCount="0" stopTime="0.00" timeLoss="7.52" rerouteNo="0" devices="tripinfo_E0__0__car.5 emissions_E0__0__car.5" vType="car" speedFactor="1.05" vaporized="">
        <emissions CO_abs="1868.268044" CO2_abs="96259.308189" HC_abs="10.713547" PMx_abs="1.487189" NOx_abs="38.168936" fuel_abs="30702.773608" electricity_abs="0"/>
    </tripinfo>
    <tripinfo id="-E9__0__motorbike.0" depart="1.00" departLane="-E9_1" departPos="2.10" departPosLat="0.00" departSpeed="0.00" departDelay="0.98" arrival="57.00" arrivalLane="E8_3" arrivalPos="125.44" arrivalPosLat="0.00" arrivalSpeed="11.09" duration="56.00" routeLength="285.67" waitingTime="18.00" waitingCount="1" stopTime="0.00" timeLoss="29.28" rerouteNo="0" devices="tripinfo_-E9__0__motorbike.0 emissions_-E9__0__motorbike.0" vType="motorbike" speedFactor="1.02" vaporized="">
        <emissions CO_abs="6635.788774" CO2_abs="111259.108393" HC_abs="26.134860" PMx_abs="7.558208" NOx_abs="26.152661" fuel_abs="35491.281899" electricity_abs="0"/>
    </tripinfo>
    <tripinfo id="-E9__0__motorbike.1" depart="2.00" departLane="-E9_2" departPos="2.10" departPosLat="0.00" departSpeed="0.00" departDelay="0.52" arrival="57.00" arrivalLane="E8_2" arrivalPos="125.44" arrivalPosLat="0.00" arrivalSpeed="10.63" duration="55.00" routeLength="285.67" waitingTime="13.00" waitingCount="1" stopTime="0.00" timeLoss="28.60" rerouteNo="0" devices="tripinfo_-E9__0__motorbike.1 emissions_-E9__0__motorbike.1" vType="motorbike" speedFactor="1.08" vaporized="">
        <emissions CO_abs="6430.109170" CO2_abs="116729.235646" HC_abs="25.668774" PMx_abs="7.536595" NOx_abs="27.254566" fuel_abs="37236.158693" electricity_abs="0"/>
    </tripinfo>
    <tripinfo id="-E4__0__car.2" depart="16.00" departLane="-E4_1" departPos="4.60" departPosLat="0.00" departSpeed="0.00" departDelay="3.59" arrival="58.00" arrivalLane="E5_2" arrivalPos="132.02" arrivalPosLat="0.00" arrivalSpeed="10.76" duration="42.00" routeLength="296.51" waitingTime="2.00" waitingCount="1" stopTime="0.00" timeLoss="14.55" rerouteNo="0" devices="tripinfo_-E4__0__car.2 emissions_-E4__0__car.2" vType="car" speedFactor="1.05" vaporized="">
        <emissions CO_abs="2897.795169" CO2_abs="118060.216529" HC_abs="15.902235" PMx_abs="1.980427" NOx_abs="47.864664" fuel_abs="37656.573774" electricity_abs="0"/>
    </tripinfo>
    <tripinfo id="-E9__0__motorbike.5" depart="20.00" departLane="-E9_1" departPos="2.10" departPosLat="0.00" departSpeed="0.00" departDelay="0.89" arrival="59.00" arrivalLane="E7_1" arrivalPos="144.88" arrivalPosLat="0.00" arrivalSpeed="8.44" duration="39.00" routeLength="289.44" waitingTime="0.00" waitingCount="0" stopTime="0.00" timeLoss="5.82" rerouteNo="0" devices="tripinfo_-E9__0__motorbike.5 emissions_-E9__0__motorbike.5" vType="motorbike" speedFactor="0.82" vaporized="">
        <emissions CO_abs="2495.166011" CO2_abs="74282.481176" HC_abs="10.743494" PMx_abs="3.271912" NOx_abs="17.703819" fuel_abs="23695.407277" electricity_abs="0"/>
    </tripinfo>
    <tripinfo id="-E9__0__motorbike.7" depart="24.00" departLane="-E9_1" departPos="2.10" departPosLat="0.00" departSpeed="0.00" departDelay="0.62" arrival="59.00" arrivalLane="E7_1" arrivalPos="144.88" arrivalPosLat="1.05" arrivalSpeed="9.91" duration="35.00" routeLength="289.44" waitingTime="0.00" waitingCount="0" stopTime="0.00" timeLoss="5.83" rerouteNo="0" devices="tripinfo_-E9__0__motorbike.7 emissions_-E9__0__motorbike.7" vType="motorbike" speedFactor="0.92" vaporized="">
        <emissions CO_abs="2342.641281" CO2_abs="68989.913408" HC_abs="10.260550" PMx_abs="3.249198" NOx_abs="15.980663" fuel_abs="22007.182871" electricity_abs="0"/>
    </tripinfo>
    <tripinfo id="-E9__0__car.0" depart="6.00" departLane="-E9_2" departPos="4.60" departPosLat="0.00" departSpeed="0.00" departDelay="0.59" arrival="60.00" arrivalLane="E8_3" arrivalPos="125.44" arrivalPosLat="0.00" arrivalSpeed="9.89" duration="54.00" routeLength="283.17" waitingTime="12.00" waitingCount="1" stopTime="0.00" timeLoss="26.52" rerouteNo="0" devices="tripinfo_-E9__0__car.0 emissions_-E9__0__car.0" vType="car" speedFactor="0.95" vaporized="">
        <emissions CO_abs="4785.243244" CO2_abs="145085.478223" HC_abs="25.136418" PMx_abs="2.676489" NOx_abs="60.631587" fuel_abs="46277.050787" electricity_abs="0"/>
    </tripinfo>
    <tripinfo id="-E9__0__car.1" depart="10.00" departLane="-E9_1" departPos="4.60" departPosLat="0.00" departSpeed="0.00" departDelay="0.41" arrival="62.00" arrivalLane="E8_3" arrivalPos="125.44" arrivalPosLat="0.00" arrivalSpeed="10.72" duration="52.00" routeLength="283.17" waitingTime="11.00" waitingCount="1" stopTime="0.00" timeLoss="25.75" rerouteNo="0" devices="tripinfo_-E9__0__car.1 emissions_-E9__0__car.1" vType="car" speedFactor="1.09" vaporized="">
        <emissions CO_abs="4562.059375" CO2_abs="141176.565564" HC_abs="24.033896" PMx_abs="2.609326" NOx_abs="58.957766" fuel_abs="45030.190543" electricity_abs="0"/>
    </tripinfo>
    <tripinfo id="E0__0__motorbike.3" depart="27.00" departLane="E0_1" departPos="2.10" departPosLat="0.00" departSpeed="0.00" departDelay="0.30" arrival="63.00" arrivalLane="E1_2" arrivalPos="153.25" arrivalPosLat="0.00" arrivalSpeed="10.19" duration="36.00" routeLength="297.83" waitingTime="0.00" waitingCount="0" stopTime="0.00" timeLoss="5.99" rerouteNo="0" devices="tripinfo_E0__0__motorbike.3 emissions_E0__0__motorbike.3" vType="motorbike" speedFactor="0.93" vaporized="">
        <emissions CO_abs="2467.437642" CO2_abs="75611.365962" HC_abs="10.851882" PMx_abs="3.420424" NOx_abs="17.653922" fuel_abs="24119.314965" electricity_abs="0"/>
    </tripinfo>
    <tripinfo id="E0__0__motorbike.4" depart="29.00" departLane="E0_2" departPos="2.10" departPosLat="0.00" departSpeed="0.00" departDelay="0.21" arrival="64.00" arrivalLane="E1_2" arrivalPos="153.25" arrivalPosLat="0.00" arrivalSpeed="10.21" duration="35.00" routeLength="297.83" waitingTime="0.00" waitingCount="0" stopTime="0.00" timeLoss="6.14" rerouteNo="0" devices="tripinfo_E0__0__motorbike.4 emissions_E0__0__motorbike.4" vType="motorbike" speedFactor="0.95" vaporized="">
        <emissions CO_abs="2435.940550" CO2_abs="74940.294829" HC_abs="10.758924" PMx_abs="3.416278" NOx_abs="17.411990" fuel_abs="23905.255580" electricity_abs="0"/>
    </tripinfo>
    <tripinfo id="-E9__0__motorbike.9" depart="31.00" departLane="-E9_3" departPos="2.10" departPosLat="0.00" departSpeed="0.00" departDelay="0.85" arrival="64.00" arrivalLane="E8_3" arrivalPos="125.44" arrivalPosLat="1.05" arrivalSpeed="10.15" duration="33.00" routeLength="285.67" waitingTime="0.00" waitingCount="0" stopTime="0.00" timeLoss="5.61" rerouteNo="0" devices="tripinfo_-E9__0__motorbike.9 emissions_-E9__0__motorbike.9" vType="motorbike" speedFactor="0.96" vaporized="">
        <emissions CO_abs="2112.763702" CO2_abs="67605.483926" HC_abs="9.356494" PMx_abs="2.945723" NOx_abs="15.871525" fuel_abs="21565.462322" electricity_abs="0"/>
    </tripinfo>
    <tripinfo id="-E9__0__motorbike.2" depart="10.00" departLane="-E9_3" departPos="2.10" departPosLat="0.00" departSpeed="0.00" departDelay="0.41" arrival="65.00" arrivalLane="E8_3" arrivalPos="125.44" arrivalPosLat="0.00" arrivalSpeed="8.98" duration="55.00" routeLength="285.67" waitingTime="9.00" waitingCount="1" stopTime="0.00" timeLoss="24.19" rerouteNo="0" devices="tripinfo_-E9__0__motorbike.2 emissions_-E9__0__motorbike.2" vType="motorbike" speedFactor="0.86" vaporized="">
        <emissions CO_abs="5586.945695" CO2_abs="103488.699697" HC_abs="22.197834" PMx_abs="6.422511" NOx_abs="24.551338" fuel_abs="33012.429944" electricity_abs="0"/>
    </tripinfo>
    <tripinfo id="-E9__0__motorbike.8" depart="26.00" departLane="-E9_2" departPos="2.10" departPosLat="0.00" departSpeed="0.00" departDelay="0.15" arrival="66.00" arrivalLane="E8_3" arrivalPos="125.44" arrivalPosLat="0.05" arrivalSpeed="10.24" duration="40.00" routeLength="285.67" waitingTime="1.00" waitingCount="1" stopTime="0.00" timeLoss="12.76" rerouteNo="0" devices="tripinfo_-E9__0__motorbike.8 emissions_-E9__0__motorbike.8" vType="motorbike" speedFactor="0.98" vaporized="">
        <emissions CO_abs="3752.050856" CO2_abs="93619.826452" HC_abs="15.967905" PMx_abs="4.998341" NOx_abs="21.438626" fuel_abs="29864.094096" electricity_abs="0"/>
    </tripinfo>
    <tripinfo id="-E9__0__motorbike.3" depart="17.00" departLane="-E9_1" departPos="2.10" departPosLat="0.00" departSpeed="0.00" departDelay="0.39" arrival="67.00" arrivalLane="E8_3" arrivalPos="125.44" arrivalPosLat="0.00" arrivalSpeed="9.98" duration="50.00" routeLength="285.67" waitingTime="7.00" waitingCount="1" stopTime="0.00" timeLoss="22.57" rerouteNo="0" devices="tripinfo_-E9__0__motorbike.3 emissions_-E9__0__motorbike.3" vType="motorbike" speedFactor="0.96" vaporized="">
        <emissions CO_abs="5276.688469" CO2_abs="105481.723410" HC_abs="21.367254" PMx_abs="6.345549" NOx_abs="24.628171" fuel_abs="33648.145601" electricity_abs="0"/>
    </tripinfo>
    <tripinfo id="-E9__0__car.2" depart="34.00" departLane="-E9_3" departPos="4.60" departPosLat="0.00" departSpeed="0.00" departDelay="0.84" arrival="71.00" arrivalLane="E7_2" arrivalPos="144.88" arrivalPosLat="0.00" arrivalSpeed="9.70" duration="37.00" routeLength="286.94" waitingTime="0.00" waitingCount="0" stopTime="0.00" timeLoss="6.93" rerouteNo="0" devices="tripinfo_-E9__0__car.2 emissions_-E9__0__car.2" vType="car" speedFactor="0.89" vaporized="">
        <emissions CO_abs="1909.533712" CO2_abs="93345.206611" HC_abs="10.814301" PMx_abs="1.358035" NOx_abs="36.629898" fuel_abs="29773.436955" electricity_abs="0"/>
    </tripinfo>
    <tripinfo id="-E7__0__motorbike.5" depart="40.00" departLane="-E7_1" departPos="2.10" departPosLat="0.00" departSpeed="0.00" departDelay="0.18" arrival="72.00" arrivalLane="E8_2" arrivalPos="125.44" arrivalPosLat="0.00" arrivalSpeed="10.71" duration="32.00" routeLength="295.98" waitingTime="0.00" waitingCount="0" stopTime="0.00" timeLoss="4.89" rerouteNo="0" devices="tripinfo_-E7__0__motorbike.5 emissions_-E7__0__motorbike.5" vType="motorbike" speedFactor="1.14" vaporized="">
        <emissions CO_abs="1967.417520" CO2_abs="65185.141967" HC_abs="8.839609" PMx_abs="2.829660" NOx_abs="15.185451" fuel_abs="20793.377194" electricity_abs="0"/>
    </tripinfo>
    <tripinfo id="-E7__0__car.0" depart="9.00" departLane="-E7_3" departPos="4.60" departPosLat="0.00" departSpeed="0.00" departDelay="0.54" arrival="76.00" arrivalLane="E9_3" arrivalPos="137.53" arrivalPosLat="0.00" arrivalSpeed="11.02" duration="67.00" routeLength="302.58" waitingTime="28.00" waitingCount="1" stopTime="0.00" timeLoss="39.23" rerouteNo="0" devices="tripinfo_-E7__0__car.0 emissions_-E7__0__car.0" vType="car" speedFactor="1.00" vaporized="">
        <emissions CO_abs="7092.905761" CO2_abs="185540.211068" HC_abs="36.589075" PMx_abs="3.621206" NOx_abs="78.436539" fuel_abs="59181.084725" electricity_abs="0"/>
    </tripinfo>
    <tripinfo id="-E2__0__car.2" depart="10.00" departLane="-E2_1" departPos="4.60" departPosLat="0.00" departSpeed="0.00" departDelay="0.69" arrival="77.00" arrivalLane="E4_3" arrivalPos="141.64" arrivalPosLat="0.00" arrivalSpeed="10.86" duration="67.00" routeLength="451.73" waitingTime="12.00" waitingCount="1" stopTime="0.00" timeLoss="24.88" rerouteNo="0" devices="tripinfo_-E2__0__car.2 emissions_-E2__0__car.2" vType="car" speedFactor="1.08" vaporized="">
        <emissions CO_abs="4871.148886" CO2_abs="183390.630666" HC_abs="26.380899" PMx_abs="3.020627" NOx_abs="73.871459" fuel_abs="58494.717111" electricity_abs="0"/>
    </tripinfo>
    <tripinfo id="-E1__0__car.0" depart="1.00" departLane="-E1_3" departPos="4.60" departPosLat="0.00" departSpeed="0.00" departDelay="0.16" arrival="79.00" arrivalLane="-E0_3" arrivalPos="137.59" arrivalPosLat="0.00" arrivalSpeed="8.47" duration="78.00" routeLength="311.02" waitingTime="32.00" waitingCount="1" stopTime="0.00" timeLoss="42.37" rerouteNo="0" devices="tripinfo_-E1__0__car.0 emissions_-E1__0__car.0" vType="car" speedFactor="0.80" vaporized="">
        <emissions CO_abs="7990.659280" CO2_abs="192597.090101" HC_abs="40.804344" PMx_abs="3.684165" NOx_abs="81.276018" fuel_abs="61432.442648" electricity_abs="0"/>
    </tripinfo>
    <tripinfo id="E0__0__car.0" depart="4.00" departLane="E0_3" departPos="4.60" departPosLat="0.00" departSpeed="0.00" departDelay="0.42" arrival="80.00" arrivalLane="E4_3" arrivalPos="141.64" arrivalPosLat="0.00" arrivalSpeed="9.17" duration="76.00" routeLength="460.83" waitingTime="14.00" waitingCount="1" stopTime="0.00" timeLoss="28.25" rerouteNo="0" devices="tripinfo_E0__0__car.0 emissions_E0__0__car.0" vType="car" speedFactor="0.88" vaporized="">
        <emissions CO_abs="5532.445327" CO2_abs="182796.759644" HC_abs="29.375106" PMx_abs="3.114749" NOx_abs="74.671114" fuel_abs="58305.574528" electricity_abs="0"/>
    </tripinfo>
    <tripinfo id="-E7__0__motorbike.1" depart="17.00" departLane="-E7_3" departPos="2.10" departPosLat="0.00" departSpeed="0.00" departDelay="0.74" arrival="80.00" arrivalLane="E9_3" arrivalPos="137.53" arrivalPosLat="0.00" arrivalSpeed="8.58" duration="63.00" routeLength="305.08" waitingTime="19.00" waitingCount="1" stopTime="0.00" timeLoss="29.57" rerouteNo="0" devices="tripinfo_-E7__0__motorbike.1 emissions_-E7__0__motorbike.1" vType="motorbike" speedFactor="0.83" vaporized="">
        <emissions CO_abs="6849.863091" CO2_abs="108975.297778" HC_abs="26.551869" PMx_abs="7.479346" NOx_abs="26.166462" fuel_abs="34762.795740" electricity_abs="0"/>
    </tripinfo>
    <tripinfo id="-E1__0__car.1" depart="5.00" departLane="-E1_3" departPos="4.60" departPosLat="0.00" departSpeed="0.00" departDelay="0.84" arrival="81.00" arrivalLane="-E0_3" arrivalPos="137.59" arrivalPosLat="0.00" arrivalSpeed="10.21" duration="76.00" routeLength="311.02" waitingTime="32.00" waitingCount="1" stopTime="0.00" timeLoss="46.59" rerouteNo="0" devices="tripinfo_-E1__0__car.1 emissions_-E1__0__car.1" vType="car" speedFactor="0.99" vaporized="">
        <emissions CO_abs="7733.316476" CO2_abs="192586.083227" HC_abs="39.669776" PMx_abs="3.839291" NOx_abs="82.109764" fuel_abs="61428.611555" electricity_abs="0"/>
    </tripinfo>
    <tripinfo id="E0__0__motorbike.0" depart="11.00" departLane="E0_3" departPos="2.10" departPosLat="0.00" departSpeed="0.00" departDelay="0.12" arrival="81.00" arrivalLane="E5_1" arrivalPos="132.02" arrivalPosLat="0.00" arrivalSpeed="10.93" duration="70.00" routeLength="438.44" waitingTime="8.00" waitingCount="1" stopTime="0.00" timeLoss="29.26" rerouteNo="0" devices="tripinfo_E0__0__motorbike.0 emissions_E0__0__motorbike.0" vType="motorbike" speedFactor="1.06" vaporized="">
        <emissions CO_abs="7129.435070" CO2_abs="156156.532096" HC_abs="29.409083" PMx_abs="8.891982" NOx_abs="36.265818" fuel_abs="49812.978553" electricity_abs="0"/>
    </tripinfo>
    <tripinfo id="-E7__0__motorbike.2" depart="25.00" departLane="-E7_3" departPos="2.10" departPosLat="0.00" departSpeed="0.00" departDelay="0.31" arrival="81.00" arrivalLane="E9_3" arrivalPos="137.53" arrivalPosLat="0.00" arrivalSpeed="9.63" duration="56.00" routeLength="305.08" waitingTime="13.00" waitingCount="1" stopTime="0.00" timeLoss="26.36" rerouteNo="0" devices="tripinfo_-E7__0__motorbike.2 emissions_-E7__0__motorbike.2" vType="motorbike" speedFactor="0.93" vaporized="">
        <emissions CO_abs="6242.594305" CO2_abs="114714.510996" HC_abs="24.876530" PMx_abs="7.252764" NOx_abs="27.013637" fuel_abs="36593.419190" electricity_abs="0"/>
    </tripinfo>
    <tripinfo id="-E1__0__motorbike.0" depart="7.00" departLane="-E1_2" departPos="2.10" departPosLat="0.00" departSpeed="0.00" departDelay="1.32" arrival="82.00" arrivalLane="-E0_3" arrivalPos="137.59" arrivalPosLat="-1.05" arrivalSpeed="10.20" duration="75.00" routeLength="313.52" waitingTime="30.00" waitingCount="1" stopTime="0.00" timeLoss="45.24" rerouteNo="0" devices="tripinfo_-E1__0__motorbike.0 emissions_-E1__0__motorbike.0" vType="motorbike" speedFactor="0.97" vaporized="">
        <emissions CO_abs="9324.607766" CO2_abs="135469.247798" HC_abs="35.957535" PMx_abs="10.177172" NOx_abs="32.101468" fuel_abs="43214.502341" electricity_abs="0"/>
    </tripinfo>
    <tripinfo id="E0__0__car.2" depart="7.00" departLane="E0_2" departPos="4.60" departPosLat="0.00" departSpeed="0.00" departDelay="0.20" arrival="82.00" arrivalLane="E4_2" arrivalPos="141.64" arrivalPosLat="1.20" arrivalSpeed="9.49" duration="75.00" routeLength="460.83" waitingTime="12.00" waitingCount="1" stopTime="0.00" timeLoss="27.99" rerouteNo="0" devices="tripinfo_E0__0__car.2 emissions_E0__0__car.2" vType="car" speedFactor="0.90" vaporized="">
        <emissions CO_abs="5383.662529" CO2_abs="181191.463978" HC_abs="28.648434" PMx_abs="3.004068" NOx_abs="73.425040" fuel_abs="57793.578458" electricity_abs="0"/>
    </tripinfo>
    <tripinfo id="-E1__0__motorbike.1" depart="8.00" departLane="-E1_3" departPos="2.10" departPosLat="0.00" departSpeed="0.00" departDelay="0.29" arrival="82.00" arrivalLane="-E0_3" arrivalPos="137.59" arrivalPosLat="0.45" arrivalSpeed="11.05" duration="74.00" routeLength="313.52" waitingTime="31.00" waitingCount="1" stopTime="0.00" timeLoss="45.31" rerouteNo="0" devices="tripinfo_-E1__0__motorbike.1 emissions_-E1__0__motorbike.1" vType="motorbike" speedFactor="1.07" vaporized="">
        <emissions CO_abs="9515.783039" CO2_abs="134640.958348" HC_abs="36.689381" PMx_abs="10.433867" NOx_abs="31.642109" fuel_abs="42950.375233" electricity_abs="0"/>
    </tripinfo>
    <tripinfo id="-E7__0__car.1" depart="29.00" departLane="-E7_1" departPos="4.60" departPosLat="0.00" departSpeed="0.00" departDelay="0.46" arrival="83.00" arrivalLane="E9_3" arrivalPos="137.53" arrivalPosLat="0.00" arrivalSpeed="10.51" duration="54.00" routeLength="302.58" waitingTime="11.00" waitingCount="1" stopTime="0.00" timeLoss="26.47" rerouteNo="0" devices="tripinfo_-E7__0__car.1 emissions_-E7__0__car.1" vType="car" speedFactor="1.09" vaporized="">
        <emissions CO_abs="4677.477393" CO2_abs="147505.158448" HC_abs="24.696366" PMx_abs="2.659214" NOx_abs="61.173256" fuel_abs="47048.798245" electricity_abs="0"/>
    </tripinfo>
    <tripinfo id="E0__0__motorbike.8" depart="48.00" departLane="E0_2" departPos="2.10" departPosLat="0.00" departSpeed="0.00" departDelay="0.08" arrival="83.00" arrivalLane="E1_1" arrivalPos="153.25" arrivalPosLat="0.00" arrivalSpeed="10.97" duration="35.00" routeLength="297.83" waitingTime="0.00" waitingCount="0" stopTime="0.00" timeLoss="6.69" rerouteNo="0" devices="tripinfo_E0__0__motorbike.8 emissions_E0__0__motorbike.8" vType="motorbike" speedFactor="1.07" vaporized="">
        <emissions CO_abs="2708.588956" CO2_abs="87336.941993" HC_abs="12.126655" PMx_abs="3.893845" NOx_abs="20.239233" fuel_abs="27859.621152" electricity_abs="0"/>
    </tripinfo>
    <tripinfo id="-E1__0__car.2" depart="8.00" departLane="-E1_1" departPos="4.60" departPosLat="0.00" departSpeed="0.00" departDelay="0.05" arrival="84.00" arrivalLane="-E0_3" arrivalPos="137.59" arrivalPosLat="0.00" arrivalSpeed="10.86" duration="76.00" routeLength="311.02" waitingTime="29.00" waitingCount="1" stopTime="0.00" timeLoss="47.33" rerouteNo="0" devices="tripinfo_-E1__0__car.2 emissions_-E1__0__car.2" vType="car" speedFactor="1.03" vaporized="">
        <emissions CO_abs="7880.624209" CO2_abs="201194.961151" HC_abs="40.546603" PMx_abs="4.008743" NOx_abs="85.881527" fuel_abs="64174.420929" electricity_abs="0"/>
    </tripinfo>
    <tripinfo id="E0__0__car.1" depart="7.00" departLane="E0_1" departPos="4.60" departPosLat="0.00" departSpeed="0.00" departDelay="0.46" arrival="85.00" arrivalLane="E4_3" arrivalPos="141.64" arrivalPosLat="0.00" arrivalSpeed="9.42" duration="78.00" routeLength="460.83" waitingTime="10.00" waitingCount="2" stopTime="0.00" timeLoss="28.10" rerouteNo="0" devices="tripinfo_E0__0__car.1 emissions_E0__0__car.1" vType="car" speedFactor="0.85" vaporized="">
        <emissions CO_abs="5617.199785" CO2_abs="187151.161753" HC_abs="29.846215" PMx_abs="3.114443" NOx_abs="76.069789" fuel_abs="59694.518544" electricity_abs="0"/>
    </tripinfo>
    <tripinfo id="-E1__0__motorbike.2" depart="11.00" departLane="-E1_3" departPos="2.10" departPosLat="0.00" departSpeed="0.00" departDelay="0.18" arrival="85.00" arrivalLane="-E0_3" arrivalPos="137.59" arrivalPosLat="-0.45" arrivalSpeed="10.43" duration="74.00" routeLength="313.52" waitingTime="28.00" waitingCount="1" stopTime="0.00" timeLoss="45.70" rerouteNo="0" devices="tripinfo_-E1__0__motorbike.2 emissions_-E1__0__motorbike.2" vType="motorbike" speedFactor="1.05" vaporized="">
        <emissions CO_abs="9481.607884" CO2_abs="139578.862715" HC_abs="36.671002" PMx_abs="10.435200" NOx_abs="32.909895" fuel_abs="44525.485831" electricity_abs="0"/>
    </tripinfo>
    <tripinfo id="-E1__0__motorbike.3" depart="16.00" departLane="-E1_1" departPos="2.10" departPosLat="0.00" departSpeed="0.00" departDelay="0.32" arrival="85.00" arrivalLane="-E0_3" arrivalPos="137.59" arrivalPosLat="1.05" arrivalSpeed="10.97" duration="69.00" routeLength="313.52" waitingTime="27.00" waitingCount="1" stopTime="0.00" timeLoss="40.56" rerouteNo="0" devices="tripinfo_-E1__0__motorbike.3 emissions_-E1__0__motorbike.3" vType="motorbike" speedFactor="1.03" vaporized="">
        <emissions CO_abs="8808.068270" CO2_abs="136376.160691" HC_abs="34.220420" PMx_abs="9.735259" NOx_abs="32.343838" fuel_abs="43503.646360" electricity_abs="0"/>
    </tripinfo>
    <tripinfo id="-E7__0__motorbike.3" depart="31.00" departLane="-E7_2" departPos="2.10" departPosLat="0.00" departSpeed="0.00" departDelay="0.49" arrival="85.00" arrivalLane="E9_3" arrivalPos="137.53" arrivalPosLat="0.00" arrivalSpeed="10.95" duration="54.00" routeLength="305.08" waitingTime="11.00" waitingCount="1" stopTime="0.00" timeLoss="25.64" rerouteNo="0" devices="tripinfo_-E7__0__motorbike.3 emissions_-E7__0__motorbike.3" vType="motorbike" speedFactor="1.03" vaporized="">
        <emissions CO_abs="5860.569431" CO2_abs="119673.099322" HC_abs="23.741804" PMx_abs="7.009013" NOx_abs="28.169612" fuel_abs="38175.014980" electricity_abs="0"/>
    </tripinfo>
    <tripinfo id="E0__0__car.4" depart="14.00" departLane="E0_2" departPos="4.60" departPosLat="0.00" departSpeed="0.00" departDelay="1.68" arrival="86.00" arrivalLane="E4_3" arrivalPos="141.64" arrivalPosLat="0.00" arrivalSpeed="9.58" duration="72.00" routeLength="460.83" waitingTime="9.00" waitingCount="2" stopTime="0.00" timeLoss="30.23" rerouteNo="0" devices="tripinfo_E0__0__car.4 emissions_E0__0__car.4" vType="car" speedFactor="1.03" vaporized="">
        <emissions CO_abs="5277.311971" CO2_abs="186590.688945" HC_abs="28.320287" PMx_abs="3.224316" NOx_abs="76.502902" fuel_abs="59515.415980" electricity_abs="0"/>
    </tripinfo>
    <tripinfo id="-E1__0__car.3" depart="17.00" departLane="-E1_2" departPos="4.60" departPosLat="0.00" departSpeed="0.00" departDelay="0.25" arrival="87.00" arrivalLane="-E0_3" arrivalPos="137.59" arrivalPosLat="0.00" arrivalSpeed="10.64" duration="70.00" routeLength="311.02" waitingTime="25.00" waitingCount="2" stopTime="0.00" timeLoss="41.97" rerouteNo="0" devices="tripinfo_-E1__0__car.3 emissions_-E1__0__car.3" vType="car" speedFactor="1.10" vaporized="">
        <emissions CO_abs="7218.413828" CO2_abs="189599.904333" HC_abs="37.252762" PMx_abs="3.690128" NOx_abs="80.290280" fuel_abs="60475.961993" electricity_abs="0"/>
    </tripinfo>
    <tripinfo id="-E7__0__car.2" depart="34.00" departLane="-E7_1" departPos="4.60" departPosLat="0.00" departSpeed="0.00" departDelay="2.06" arrival="87.00" arrivalLane="E9_3" arrivalPos="137.53" arrivalPosLat="0.00" arrivalSpeed="10.41" duration="53.00" routeLength="302.58" waitingTime="9.00" waitingCount="1" stopTime="0.00" timeLoss="25.00" rerouteNo="0" devices="tripinfo_-E7__0__car.2 emissions_-E7__0__car.2" vType="car" speedFactor="1.06" vaporized="">