<?xml version="1.0" encoding="UTF-8"?>

<!-- generated on 2026-06-21 12:13:02 by Eclipse SUMO GUI Version 1.18.0
<configuration xmlns:xsi="http://www.w3.org/2001/XMLSchema-instance" xsi:noNamespaceSchemaLocation="http://sumo.dlr.de/xsd/sumoConfiguration.xsd">

    <input>
        <net-file value="Scenario/3nodes/env/3nodes.net.xml"/>
        <route-files value="Scenario/3nodes/env/../routes/vehicle.rou.xml"/>
        <additional-files value="Scenario/3nodes/env/../add/tls.add.xml,Scenario/3nodes/env/ ../add/e2.add.xml"/>
    </input>

    <output>
        <netstate-dump value="Scenario/3nodes/env/../output/e2.netstate.xml"/>
        <netstate-dump.precision value="2"/>
        <summary-output value="Scenario/3nodes/env/../output/e2_summary.output.xml"/>
        <tripinfo-output value="/home/hoanganh/Project/TSC-CoLight/deploy_3nodes_small.tripinfo.xml"/>
        <tripinfo-output.write-unfinished value="true"/>
    </output>

    <time>
        <begin value="0"/>
        <end value="504"/>
        <step-length value="1.0"/>
    </time>

    <processing>
        <lateral-resolution value="0.2"/>
        <time-to-teleport value="-1"/>
        <waiting-time-memory value="10000"/>
        <max-depart-delay value="100000"/>
    </processing>

    <report>
        <no-warnings value="true"/>
        <no-step-log value="true"/>
    </report>

    <emissions>
        <device.emissions.probability value="1.0"/>
    </emissions>

    <traci_server>
        <remote-port value="45711"/>
    </traci_server>

    <random_number>
        <random value="true"/>
    </random_number>

    <gui_only>
        <quit-on-end value="true"/>
        <start value="true"/>
    </gui_only>

</configuration>
-->

<tripinfos xmlns:xsi="http://www.w3.org/2001/XMLSchema-instance" xsi:noNamespaceSchemaLocation="http://sumo.dlr.de/xsd/tripinfo_file.xsd">
    <tripinfo id="-E2__0__motorbike.0" depart="11.00" departLane="-E2_2" departPos="2.10" departPosLat="0.00" departSpeed="0.00" departDelay="0.12" arrival="45.00" arrivalLane="-E0_2" arrivalPos="137.59" arrivalPosLat="0.00" arrivalSpeed="10.32" duration="34.00" routeLength="308.00" waitingTime="0.00" waitingCount="0" stopTime="0.00" timeLoss="5.31" rerouteNo="0" devices="tripinfo_-E2__0__motorbike.0 emissions_-E2__0__motorbike.0" vType="motorbike" speedFactor="0.99" vaporized="">
        <emissions CO_abs="1946.382588" CO2_abs="65761.061350" HC_abs="8.742930" PMx_abs="2.779112" NOx_abs="15.424521" fuel_abs="20977.068692" electricity_abs="0"/>
    </tripinfo>
    <tripinfo id="-E5__0__motorbike.0" depart="12.00" departLane="-E5_2" departPos="2.10" departPosLat="0.00" departSpeed="0.00" departDelay="0.97" arrival="45.00" arrivalLane="E4_2" arrivalPos="141.64" arrivalPosLat="0.00" arrivalSpeed="10.98" duration="33.00" routeLength="299.03" waitingTime="0.00" waitingCount="0" stopTime="0.00" timeLoss="5.22" rerouteNo="0" devices="tripinfo_-E5__0__motorbike.0 emissions_-E5__0__motorbike.0" vType="motorbike" speedFactor="1.02" vaporized="">
        <emissions CO_abs="1957.910911" CO2_abs="64472.349642" HC_abs="8.772901" PMx_abs="2.799618" NOx_abs="15.040726" fuel_abs="20566.008888" electricity_abs="0"/>
    </tripinfo>
    <tripinfo id="-E7__0__motorbike.0" depart="7.00" departLane="-E7_3" departPos="2.10" departPosLat="0.00" departSpeed="0.00" departDelay="0.46" arrival="54.00" arrivalLane="E4_1" arrivalPos="141.64" arrivalPosLat="0.00" arrivalSpeed="10.98" duration="47.00" routeLength="417.85" waitingTime="0.00" waitingCount="0" stopTime="0.00" timeLoss="7.23" rerouteNo="0" devices="tripinfo_-E7__0__motorbike.0 emissions_-E7__0__motorbike.0" vType="motorbike" speedFactor="1.06" vaporized="">
        <emissions CO_abs="3271.477645" CO2_abs="110165.466207" HC_abs="14.772671" PMx_abs="4.757738" NOx_abs="25.604258" fuel_abs="35141.652791" electricity_abs="0"/>
    </tripinfo>
    <tripinfo id="-E9__0__motorbike.0" depart="8.00" departLane="-E9_2" departPos="2.10" departPosLat="0.00" departSpeed="0.00" departDelay="0.29" arrival="57.00" arrivalLane="E8_3" arrivalPos="125.44" arrivalPosLat="0.00" arrivalSpeed="10.32" duration="49.00" routeLength="285.67" waitingTime="10.00" waitingCount="1" stopTime="0.00" timeLoss="21.38" rerouteNo="0" devices="tripinfo_-E9__0__motorbike.0 emissions_-E9__0__motorbike.0" vType="motorbike" speedFactor="0.95" vaporized="">
        <emissions CO_abs="5360.769390" CO2_abs="103654.800823" HC_abs="21.474905" PMx_abs="6.259197" NOx_abs="24.545194" fuel_abs="33065.319292" electricity_abs="0"/>
    </tripinfo>
    <tripinfo id="-E9__0__motorbike.1" depart="11.00" departLane="-E9_1" departPos="2.10" departPosLat="0.00" departSpeed="0.00" departDelay="0.18" arrival="72.00" arrivalLane="E4_1" arrivalPos="141.64" arrivalPosLat="0.00" arrivalSpeed="11.03" duration="61.00" routeLength="428.43" waitingTime="8.00" waitingCount="1" stopTime="0.00" timeLoss="21.24" rerouteNo="0" devices="tripinfo_-E9__0__motorbike.1 emissions_-E9__0__motorbike.1" vType="motorbike" speedFactor="1.07" vaporized="">
        <emissions CO_abs="5770.966624" CO2_abs="128464.216806" HC_abs="23.887640" PMx_abs="7.244347" NOx_abs="29.820962" fuel_abs="40979.265953" electricity_abs="0"/>
    </tripinfo>
    <tripinfo id="-E7__0__car.0" depart="13.00" departLane="-E7_1" departPos="4.60" departPosLat="0.00" departSpeed="0.00" departDelay="0.68" arrival="75.00" arrivalLane="E8_2" arrivalPos="125.44" arrivalPosLat="0.00" arrivalSpeed="10.72" duration="62.00" routeLength="293.48" waitingTime="24.00" waitingCount="1" stopTime="0.00" timeLoss="34.98" rerouteNo="0" devices="tripinfo_-E7__0__car.0 emissions_-E7__0__car.0" vType="car" speedFactor="1.05" vaporized="">
        <emissions CO_abs="6195.029671" CO2_abs="168087.927393" HC_abs="32.097736" PMx_abs="3.245910" NOx_abs="70.923597" fuel_abs="53614.275479" electricity_abs="0"/>
    </tripinfo>
    <tripinfo id="-E1__0__motorbike.2" depart="41.00" departLane="-E1_2" departPos="2.10" departPosLat="0.00" departSpeed="0.00" departDelay="0.46" arrival="75.00" arrivalLane="-E0_3" arrivalPos="137.59" arrivalPosLat="0.00" arrivalSpeed="10.39" duration="34.00" routeLength="313.52" waitingTime="0.00" waitingCount="0" stopTime="0.00" timeLoss="5.75" rerouteNo="0" devices="tripinfo_-E1__0__motorbike.2 emissions_-E1__0__motorbike.2" vType="motorbike" speedFactor="1.11" vaporized="">
        <emissions CO_abs="2025.964647" CO2_abs="65541.015709" HC_abs="9.015150" PMx_abs="2.852344" NOx_abs="15.350588" fuel_abs="20906.899790" electricity_abs="0"/>
    </tripinfo>
    <tripinfo id="-E7__0__motorbike.1" depart="7.00" departLane="-E7_1" departPos="2.10" departPosLat="0.00" departSpeed="0.00" departDelay="0.20" arrival="77.00" arrivalLane="E9_3" arrivalPos="137.53" arrivalPosLat="0.00" arrivalSpeed="9.72" duration="70.00" routeLength="305.08" waitingTime="27.00" waitingCount="1" stopTime="0.00" timeLoss="39.17" rerouteNo="0" devices="tripinfo_-E7__0__motorbike.1 emissions_-E7__0__motorbike.1" vType="motorbike" speedFactor="0.91" vaporized="">
        <emissions CO_abs="8462.536906" CO2_abs="124750.795261" HC_abs="32.576878" PMx_abs="9.158718" NOx_abs="29.813174" fuel_abs="39795.281710" electricity_abs="0"/>
    </tripinfo>
    <tripinfo id="E0__0__car.0" depart="16.00" departLane="E0_3" departPos="4.60" departPosLat="0.00" departSpeed="0.00" departDelay="0.07" arrival="77.00" arrivalLane="E5_1" arrivalPos="132.02" arrivalPosLat="0.00" arrivalSpeed="9.42" duration="61.00" routeLength="435.94" waitingTime="2.00" waitingCount="1" stopTime="0.00" timeLoss="13.92" rerouteNo="0" devices="tripinfo_E0__0__car.0 emissions_E0__0__car.0" vType="car" speedFactor="0.86" vaporized="">
        <emissions CO_abs="3448.253480" CO2_abs="145375.433759" HC_abs="19.003983" PMx_abs="2.206955" NOx_abs="57.731677" fuel_abs="46369.215941" electricity_abs="0"/>
    </tripinfo>
    <tripinfo id="-E9__0__motorbike.2" depart="42.00" departLane="-E9_1" departPos="2.10" departPosLat="0.00" departSpeed="0.00" departDelay="0.70" arrival="77.00" arrivalLane="E7_1" arrivalPos="144.88" arrivalPosLat="0.00" arrivalSpeed="10.99" duration="35.00" routeLength="289.44" waitingTime="0.00" waitingCount="0" stopTime="0.00" timeLoss="8.18" rerouteNo="0" devices="tripinfo_-E9__0__motorbike.2 emissions_-E9__0__motorbike.2" vType="motorbike" speedFactor="1.18" vaporized="">
        <emissions CO_abs="2834.961100" CO2_abs="80153.006858" HC_abs="12.342538" PMx_abs="3.906708" NOx_abs="18.478383" fuel_abs="25568.144320" electricity_abs="0"/>
    </tripinfo>
    <tripinfo id="E0__0__motorbike.0" depart="48.00" departLane="E0_3" departPos="2.10" departPosLat="0.00" departSpeed="0.00" departDelay="0.08" arrival="83.00" arrivalLane="E1_2" arrivalPos="153.25" arrivalPosLat="0.00" arrivalSpeed="10.70" duration="35.00" routeLength="297.83" waitingTime="0.00" waitingCount="0" stopTime="0.00" timeLoss="6.98" rerouteNo="0" devices="tripinfo_E0__0__motorbike.0 emissions_E0__0__motorbike.0" vType="motorbike" speedFactor="0.99" vaporized="">
        <emissions CO_abs="2589.374525" CO2_abs="81923.264049" HC_abs="11.560035" PMx_abs="3.715744" NOx_abs="18.928914" fuel_abs="26132.740741" electricity_abs="0"/>
    </tripinfo>
    <tripinfo id="E0__0__car.1" depart="53.00" departLane="E0_1" departPos="4.60" departPosLat="0.00" departSpeed="0.00" departDelay="0.87" arrival="88.00" arrivalLane="E1_1" arrivalPos="153.25" arrivalPosLat="0.00" arrivalSpeed="10.90" duration="35.00" routeLength="295.33" waitingTime="0.00" waitingCount="0" stopTime="0.00" timeLoss="7.69" rerouteNo="0" devices="tripinfo_E0__0__car.1 emissions_E0__0__car.1" vType="car" speedFactor="1.05" vaporized="">
        <emissions CO_abs="1903.578185" CO2_abs="100355.113348" HC_abs="10.954602" PMx_abs="1.469623" NOx_abs="39.271699" fuel_abs="32009.229663" electricity_abs="0"/>
    </tripinfo>
    <tripinfo id="-E4__0__car.1" depart="18.00" departLane="-E4_1" departPos="4.60" departPosLat="0.00" departSpeed="0.00" departDelay="0.63" arrival="95.00" arrivalLane="E1_2" arrivalPos="153.25" arrivalPosLat="0.00" arrivalSpeed="10.37" duration="77.00" routeLength="463.50" waitingTime="21.00" waitingCount="1" stopTime="0.00" timeLoss="34.85" rerouteNo="0" devices="tripinfo_-E4__0__car.1 emissions_-E4__0__car.1" vType="car" speedFactor="1.20" vaporized="">
        <emissions CO_abs="6488.852565" CO2_abs="205247.766720" HC_abs="34.282529" PMx_abs="3.721716" NOx_abs="84.986718" fuel_abs="65466.582921" electricity_abs="0"/>
    </tripinfo>
    <tripinfo id="-E4__0__car.0" depart="4.00" departLane="-E4_3" departPos="4.60" departPosLat="0.00" departSpeed="0.00" departDelay="0.42" arrival="97.00" arrivalLane="E2_3" arrivalPos="144.59" arrivalPosLat="0.00" arrivalSpeed="8.95" duration="93.00" routeLength="451.94" waitingTime="31.00" waitingCount="1" stopTime="0.00" timeLoss="43.56" rerouteNo="0" devices="tripinfo_-E4__0__car.0 emissions_-E4__0__car.0" vType="car" speedFactor="0.84" vaporized="">
        <emissions CO_abs="8377.191521" CO2_abs="222203.863219" HC_abs="43.255142" PMx_abs="4.176987" NOx_abs="93.303845" fuel_abs="70875.624637" electricity_abs="0"/>
    </tripinfo>
    <tripinfo id="-E8__0__motorbike.0" depart="20.00" departLane="-E8_3" departPos="2.10" departPosLat="0.00" departSpeed="0.00" departDelay="0.72" arrival="98.00" arrivalLane="E7_2" arrivalPos="144.88" arrivalPosLat="-1.00" arrivalSpeed="8.61" duration="78.00" routeLength="295.65" waitingTime="35.00" waitingCount="1" stopTime="0.00" timeLoss="45.01" rerouteNo="0" devices="tripinfo_-E8__0__motorbike.0 emissions_-E8__0__motorbike.0" vType="motorbike" speedFactor="0.82" vaporized="">
        <emissions CO_abs="9538.544344" CO2_abs="125146.084594" HC_abs="36.130763" PMx_abs="9.974685" NOx_abs="30.205299" fuel_abs="39921.590990" electricity_abs="0"/>
    </tripinfo>
    <tripinfo id="-E2__0__motorbike.1" depart="55.00" departLane="-E2_2" departPos="2.10" departPosLat="0.00" departSpeed="0.00" departDelay="0.06" arrival="112.00" arrivalLane="-E0_2" arrivalPos="137.59" arrivalPosLat="0.00" arrivalSpeed="10.37" duration="57.00" routeLength="308.00" waitingTime="17.00" waitingCount="1" stopTime="0.00" timeLoss="29.00" rerouteNo="0" devices="tripinfo_-E2__0__motorbike.1 emissions_-E2__0__motorbike.1" vType="motorbike" speedFactor="1.16" vaporized="">
        <emissions CO_abs="6806.568502" CO2_abs="117001.592468" HC_abs="26.983354" PMx_abs="7.882632" NOx_abs="27.297830" fuel_abs="37323.102759" electricity_abs="0"/>
    </tripinfo>
    <tripinfo id="-E5__0__motorbike.1" depart="26.00" departLane="-E5_2" departPos="2.10" departPosLat="0.00" departSpeed="0.00" departDelay="0.10" arrival="113.00" arrivalLane="E4_2" arrivalPos="141.64" arrivalPosLat="0.00" arrivalSpeed="10.76" duration="87.00" routeLength="299.03" waitingTime="49.00" waitingCount="1" stopTime="0.00" timeLoss="59.26" rerouteNo="0" devices="tripinfo_-E5__0__motorbike.1 emissions_-E5__0__motorbike.1" vType="motorbike" speedFactor="1.04" vaporized="">
        <emissions CO_abs="12185.810229" CO2_abs="153079.235675" HC_abs="46.179004" PMx_abs="12.846741" NOx_abs="36.484456" fuel_abs="48832.385791" electricity_abs="0"/>
    </tripinfo>
    <tripinfo id="-E8__0__motorbike.2" depart="27.00" departLane="-E8_2" departPos="2.10" departPosLat="0.00" departSpeed="0.00" departDelay="0.05" arrival="114.00" arrivalLane="E4_1" arrivalPos="141.64" arrivalPosLat="0.00" arrivalSpeed="8.63" duration="87.00" routeLength="413.67" waitingTime="27.00" waitingCount="1" stopTime="0.00" timeLoss="40.12" rerouteNo="0" devices="tripinfo_-E8__0__motorbike.2 emissions_-E8__0__motorbike.2" vType="motorbike" speedFactor="0.82" vaporized="">
        <emissions CO_abs="9117.753958" CO2_abs="145022.537370" HC_abs="35.331306" PMx_abs="9.947153" NOx_abs="34.837130" fuel_abs="46261.765419" electricity_abs="0"/>
    </tripinfo>
    <tripinfo id="-E5__0__motorbike.2" depart="41.00" departLane="-E5_2" departPos="2.10" departPosLat="0.00" departSpeed="0.00" departDelay="0.15" arrival="115.00" arrivalLane="E4_2" arrivalPos="141.64" arrivalPosLat="0.00" arrivalSpeed="9.68" duration="74.00" routeLength="299.03" waitingTime="32.00" waitingCount="1" stopTime="0.00" timeLoss="42.48" rerouteNo="0" devices="tripinfo_-E5__0__motorbike.2 emissions_-E5__0__motorbike.2" vType="motorbike" speedFactor="0.88" vaporized="">
        <emissions CO_abs="9007.212723" CO2_abs="124151.023404" HC_abs="34.393354" PMx_abs="9.598617" NOx_abs="29.728838" fuel_abs="39604.081041" electricity_abs="0"/>
    </tripinfo>
    <tripinfo id="-E2__0__car.0" depart="29.00" departLane="-E2_3" departPos="4.60" departPosLat="0.00" departSpeed="0.00" departDelay="0.21" arrival="117.00" arrivalLane="E1_2" arrivalPos="153.25" arrivalPosLat="0.00" arrivalSpeed="8.77" duration="88.00" routeLength="318.38" waitingTime="41.00" waitingCount="1" stopTime="0.00" timeLoss="51.26" rerouteNo="0" devices="tripinfo_-E2__0__car.0 emissions_-E2__0__car.0" vType="car" speedFactor="0.79" vaporized="">
        <emissions CO_abs="9460.402268" CO2_abs="216190.273277" HC_abs="48.063783" PMx_abs="4.345038" NOx_abs="92.570771" fuel_abs="68958.004817" electricity_abs="0"/>
    </tripinfo>
    <tripinfo id="-E5__1__car.0" depart="68.00" departLane="-E5_3" departPos="4.60" departPosLat="0.00" departSpeed="0.00" departDelay="0.05" arrival="118.00" arrivalLane="E9_2" arrivalPos="137.53" arrivalPosLat="0.00" arrivalSpeed="9.24" duration="50.00" routeLength="416.02" waitingTime="0.00" waitingCount="0" stopTime="0.00" timeLoss="6.39" rerouteNo="0" devices="tripinfo_-E5__1__car.0 emissions_-E5__1__car.0" vType="car" speedFactor="0.88" vaporized="">
        <emissions CO_abs="2173.577404" CO2_abs="117178.753532" HC_abs="12.530199" PMx_abs="1.520795" NOx_abs="44.696980" fuel_abs="37375.472673" electricity_abs="0"/>
    </tripinfo>
    <tripinfo id="-E2__1__car.0" depart="84.00" departLane="-E2_1" departPos="4.60" departPosLat="0.00" departSpeed="0.00" departDelay="0.65" arrival="120.00" arrivalLane="E1_3" arrivalPos="153.25" arrivalPosLat="0.00" arrivalSpeed="11.00" duration="36.00" routeLength="318.38" waitingTime="0.00" waitingCount="0" stopTime="0.00" timeLoss="6.94" rerouteNo="0" devices="tripinfo_-E2__1__car.0 emissions_-E2__1__car.0" vType="car" speedFactor="1.16" vaporized="">
        <emissions CO_abs="1739.222431" CO2_abs="100191.738747" HC_abs="10.199914" PMx_abs="1.422885" NOx_abs="38.813031" fuel_abs="31957.077292" electricity_abs="0"/>
    </tripinfo>
    <tripinfo id="-E9__1__motorbike.0" depart="87.00" departLane="-E9_1" departPos="2.10" departPosLat="0.00" departSpeed="0.00" departDelay="0.77" arrival="120.00" arrivalLane="E7_1" arrivalPos="144.88" arrivalPosLat="0.00" arrivalSpeed="10.48" duration="33.00" routeLength="289.44" waitingTime="0.00" waitingCount="0" stopTime="0.00" timeLoss="5.76" rerouteNo="0" devices="tripinfo_-E9__1__motorbike.0 emissions_-E9__1__motorbike.0" vType="motorbike" speedFactor="1.18" vaporized="">
        <emissions CO_abs="2272.996364" CO2_abs="72202.461164" HC_abs="10.165400" PMx_abs="3.273773" NOx_abs="16.668103" fuel_abs="23031.892413" electricity_abs="0"/>
    </tripinfo>
    <tripinfo id="-E2__1__motorbike.1" depart="77.00" departLane="-E2_1" departPos="2.10" departPosLat="0.00" departSpeed="0.00" departDelay="0.25" arrival="127.00" arrivalLane="E5_1" arrivalPos="132.02" arrivalPosLat="0.00" arrivalSpeed="11.03" duration="50.00" routeLength="429.34" waitingTime="0.00" waitingCount="0" stopTime="0.00" timeLoss="10.56" rerouteNo="0" devices="tripinfo_-E2__1__motorbike.1 emissions_-E2__1__motorbike.1" vType="motorbike" speedFactor="1.16" vaporized="">
        <emissions CO_abs="3620.873389" CO2_abs="114006.528501" HC_abs="16.119659" PMx_abs="5.160550" NOx_abs="26.403216" fuel_abs="36366.995935" electricity_abs="0"/>
    </tripinfo>
    <tripinfo id="-E4__0__motorbike.0" depart="45.00" departLane="-E4_3" departPos="2.10" departPosLat="0.00" departSpeed="0.00" departDelay="0.54" arrival="130.00" arrivalLane="E5_2" arrivalPos="132.02" arrivalPosLat="0.00" arrivalSpeed="10.37" duration="85.00" routeLength="299.01" waitingTime="46.00" waitingCount="1" stopTime="0.00" timeLoss="57.29" rerouteNo="0" devices="tripinfo_-E4__0__motorbike.0 emissions_-E4__0__motorbike.0" vType="motorbike" speedFactor="1.03" vaporized="">
        <emissions CO_abs="11618.030409" CO2_abs="145301.324730" HC_abs="43.923952" PMx_abs="12.158230" NOx_abs="34.824649" fuel_abs="46351.218564" electricity_abs="0"/>
    </tripinfo>
    <tripinfo id="E0__1__motorbike.0" depart="96.00" departLane="E0_1" departPos="2.10" departPosLat="0.00" departSpeed="0.00" departDelay="0.09" arrival="130.00" arrivalLane="E2_2" arrivalPos="144.59" arrivalPosLat="0.00" arrivalSpeed="10.70" duration="34.00" routeLength="307.97" waitingTime="0.00" waitingCount="0" stopTime="0.00" timeLoss="5.54" rerouteNo="0" devices="tripinfo_E0__1__motorbike.0 emissions_E0__1__motorbike.0" vType="motorbike" speedFactor="1.06" vaporized="">
        <emissions CO_abs="2024.390065" CO2_abs="66579.909960" HC_abs="9.053788" PMx_abs="2.878756" NOx_abs="15.569245" fuel_abs="21238.292141" electricity_abs="0"/>
    </tripinfo>
    <tripinfo id="-E8__1__motorbike.2" depart="109.00" departLane="-E8_1" departPos="2.10" departPosLat="0.00" departSpeed="0.00" departDelay="0.86" arrival="142.00" arrivalLane="E9_1" arrivalPos="137.53" arrivalPosLat="0.00" arrivalSpeed="11.03" duration="33.00" routeLength="269.96" waitingTime="0.00" waitingCount="0" stopTime="0.00" timeLoss="7.25" rerouteNo="0" devices="tripinfo_-E8__1__motorbike.2 emissions_-E8__1__motorbike.2" vType="motorbike" speedFactor="1.04" vaporized="">
        <emissions CO_abs="2684.900329" CO2_abs="78118.574370" HC_abs="11.773304" PMx_abs="3.748576" NOx_abs="17.991978" fuel_abs="24919.156000" electricity_abs="0"/>
    </tripinfo>
    <tripinfo id="-E1__1__car.1" depart="107.00" departLane="-E1_3" departPos="4.60" departPosLat="0.00" departSpeed="0.00" departDelay="0.98" arrival="143.00" arrivalLane="E2_1" arrivalPos="144.59" arrivalPosLat="0.00" arrivalSpeed="10.44" duration="36.00" routeLength="303.07" waitingTime="0.00" waitingCount="0" stopTime="0.00" timeLoss="6.45" rerouteNo="0" devices="tripinfo_-E1__1__car.1 emissions_-E1__1__car.1" vType="car" speedFactor="0.98" vaporized="">
        <emissions CO_abs="1708.781518" CO2_abs="92563.832401" HC_abs="9.892520" PMx_abs="1.359959" NOx_abs="36.285654" fuel_abs="29524.086588" electricity_abs="0"/>
    </tripinfo>
    <tripinfo id="-E9__1__car.0" depart="87.00" departLane="-E9_3" departPos="4.60" departPosLat="0.00" departSpeed="0.00" departDelay="0.60" arrival="145.00" arrivalLane="E4_2" arrivalPos="141.64" arrivalPosLat="0.00" arrivalSpeed="10.98" duration="58.00" routeLength="425.93" waitingTime="5.00" waitingCount="1" stopTime="0.00" timeLoss="18.50" rerouteNo="0" devices="tripinfo_-E9__1__car.0 emissions_-E9__1__car.0" vType="car" speedFactor="1.00" vaporized="">
        <emissions CO_abs="3729.132188" CO2_abs="157566.825026" HC_abs="20.600594" PMx_abs="2.586366" NOx_abs="63.558461" fuel_abs="50257.602353" electricity_abs="0"/>
    </tripinfo>
    <tripinfo id="-E2__1__motorbike.0" depart="61.00" departLane="-E2_3" departPos="2.10" departPosLat="0.00" departSpeed="0.00" departDelay="0.16" arrival="148.00" arrivalLane="E4_3" arrivalPos="141.64" arrivalPosLat="0.00" arrivalSpeed="10.37" duration="87.00" routeLength="454.23" waitingTime="32.00" waitingCount="1" stopTime="0.00" timeLoss="45.21" rerouteNo="0" devices="tripinfo_-E2__1__motorbike.0 emissions_-E2__1__motorbike.0" vType="motorbike" speedFactor="1.05" vaporized="">
        <emissions CO_abs="9896.215228" CO2_abs="163923.396508" HC_abs="38.840108" PMx_abs="11.162567" NOx_abs="38.740030" fuel_abs="52290.992030" electricity_abs="0"/>
    </tripinfo>
    <tripinfo id="-E7__1__motorbike.1" depart="89.00" departLane="-E7_2" departPos="2.10" departPosLat="0.00" departSpeed="0.00" departDelay="0.71" arrival="148.00" arrivalLane="E9_3" arrivalPos="137.53" arrivalPosLat="-1.00" arrivalSpeed="10.51" duration="59.00" routeLength="305.08" waitingTime="19.00" waitingCount="1" stopTime="0.00" timeLoss="30.69" rerouteNo="0" devices="tripinfo_-E7__1__motorbike.1 emissions_-E7__1__motorbike.1" vType="motorbike" speedFactor="0.98" vaporized="">
        <emissions CO_abs="6899.391147" CO2_abs="113865.898556" HC_abs="27.085945" PMx_abs="7.800904" NOx_abs="26.832254" fuel_abs="36322.860106" electricity_abs="0"/>
    </tripinfo>
    <tripinfo id="E0__1__car.0" depart="117.00" departLane="E0_3" departPos="4.60" departPosLat="0.00" departSpeed="0.00" departDelay="0.85" arrival="152.00" arrivalLane="E1_1" arrivalPos="153.25" arrivalPosLat="0.00" arrivalSpeed="11.06" duration="35.00" routeLength="295.33" waitingTime="0.00" waitingCount="0" stopTime="0.00" timeLoss="7.83" rerouteNo="0" devices="tripinfo_E0__1__car.0 emissions_E0__1__car.0" vType="car" speedFactor="1.06" vaporized="">
        <emissions CO_abs="1854.826142" CO2_abs="98101.358431" HC_abs="10.696911" PMx_abs="1.515631" NOx_abs="38.932807" fuel_abs="31290.275362" electricity_abs="0"/>
    </tripinfo>
    <tripinfo id="E0__2__car.0" depart="125.00" departLane="E0_2" departPos="4.60" departPosLat="0.00" departSpeed="0.00" departDelay="0.46" arrival="159.00" arrivalLane="E1_2" arrivalPos="153.25" arrivalPosLat="0.00" arrivalSpeed="10.62" duration="34.00" routeLength="295.33" waitingTime="0.00" waitingCount="0" stopTime="0.00" timeLoss="6.34" rerouteNo="0" devices="tripinfo_E0__2__car.0 emissions_E0__2__car.0" vType="car" speedFactor="1.00" vaporized="">
        <emissions CO_abs="1690.593249" CO2_abs="93123.129124" HC_abs="9.823809" PMx_abs="1.368124" NOx_abs="36.459037" fuel_abs="29702.465338" electricity_abs="0"/>
    </tripinfo>
    <tripinfo id="-E1__0__motorbike.1" depart="37.00" departLane="-E1_1" departPos="2.10" departPosLat="0.00" departSpeed="0.00" departDelay="0.21" arrival="162.00" arrivalLane="E8_1" arrivalPos="125.44" arrivalPosLat="0.00" arrivalSpeed="10.32" duration="125.00" routeLength="592.10" waitingTime="55.00" waitingCount="1" stopTime="0.00" timeLoss="68.39" rerouteNo="0" devices="tripinfo_-E1__0__motorbike.1 emissions_-E1__0__motorbike.1" vType="motorbike" speedFactor="0.96" vaporized="">
        <emissions CO_abs="14489.289458" CO2_abs="212219.747306" HC_abs="55.814176" PMx_abs="15.714996" NOx_abs="50.635494" fuel_abs="67697.666862" electricity_abs="0"/>
    </tripinfo>
    <tripinfo id="-E4__1__motorbike.0" depart="112.00" departLane="-E4_2" departPos="2.10" departPosLat="0.00" departSpeed="0.00" departDelay="0.48" arrival="162.00" arrivalLane="-E0_1" arrivalPos="137.59" arrivalPosLat="0.00" arrivalSpeed="11.00" duration="50.00" routeLength="432.61" waitingTime="0.00" waitingCount="0" stopTime="0.00" timeLoss="9.12" rerouteNo="0" devices="tripinfo_-E4__1__motorbike.0 emissions_-E4__1__motorbike.0" vType="motorbike" speedFactor="1.06" vaporized="">
        <emissions CO_abs="3609.748345" CO2_abs="115013.844258" HC_abs="16.169316" PMx_abs="5.221454" NOx_abs="26.508751" fuel_abs="36688.326640" electricity_abs="0"/>
    </tripinfo>
    <tripinfo id="-E4__1__motorbike.1" depart="114.00" departLane="-E4_3" departPos="2.10" departPosLat="0.00" departSpeed="0.00" departDelay="0.55" arrival="164.00" arrivalLane="E2_3" arrivalPos="144.59" arrivalPosLat="0.00" arrivalSpeed="11.00" duration="50.00" routeLength="454.44" waitingTime="0.00" waitingCount="0" stopTime="0.00" timeLoss="8.51" rerouteNo="0" devices="tripinfo_-E4__1__motorbike.1 emissions_-E4__1__motorbike.1" vType="motorbike" speedFactor="1.11" vaporized="">
        <emissions CO_abs="3411.301110" CO2_abs="113478.759574" HC_abs="15.410074" PMx_abs="4.986887" NOx_abs="26.249809" fuel_abs="36198.583624" electricity_abs="0"/>
    </tripinfo>
    <tripinfo id="-E9__1__motorbike.1" depart="100.00" departLane="-E9_2" departPos="2.10" departPosLat="0.00" departSpeed="0.00" departDelay="0.85" arrival="166.00" arrivalLane="E5_3" arrivalPos="132.02" arrivalPosLat="0.00" arrivalSpeed="10.09" duration="66.00" routeLength="434.06" waitingTime="12.00" waitingCount="1" stopTime="0.00" timeLoss="24.23" rerouteNo="0" devices="tripinfo_-E9__1__motorbike.1 emissions_-E9__1__motorbike.1" vType="motorbike" speedFactor="0.95" vaporized="">
        <emissions CO_abs="6023.043312" CO2_abs="124767.671800" HC_abs="24.451138" PMx_abs="7.223393" NOx_abs="29.404998" fuel_abs="39800.114390" electricity_abs="0"/>
    </tripinfo>
    <tripinfo id="-E8__2__motorbike.0" depart="122.00" departLane="-E8_2" departPos="2.10" departPosLat="0.00" departSpeed="0.00" departDelay="0.46" arrival="167.00" arrivalLane="E7_2" arrivalPos="144.88" arrivalPosLat="0.00" arrivalSpeed="10.49" duration="45.00" routeLength="295.65" waitingTime="7.00" waitingCount="1" stopTime="0.00" timeLoss="18.13" rerouteNo="0" devices="tripinfo_-E8__2__motorbike.0 emissions_-E8__2__motorbike.0" vType="motorbike" speedFactor="0.99" vaporized="">
        <emissions CO_abs="4696.461241" CO2_abs="97205.449471" HC_abs="19.119730" PMx_abs="5.689763" NOx_abs="22.750090" fuel_abs="31007.969968" electricity_abs="0"/>
    </tripinfo>
    <tripinfo id="-E4__1__car.0" depart="65.00" departLane="-E4_3" departPos="4.60" departPosLat="0.00" departSpeed="0.00" departDelay="0.84" arrival="168.00" arrivalLane="E1_2" arrivalPos="153.25" arrivalPosLat="0.00" arrivalSpeed="10.76" duration="103.00" routeLength="463.50" waitingTime="45.00" waitingCount="1" stopTime="0.00" timeLoss="60.03" rerouteNo="0" devices="tripinfo_-E4__1__car.0 emissions_-E4__1__car.0" vType="car" speedFactor="1.12" vaporized="">
        <emissions CO_abs="10652.837679" CO2_abs="274632.506087" HC_abs="54.864237" PMx_abs="5.392464" NOx_abs="116.288116" fuel_abs="87598.586655" electricity_abs="0"/>
    </tripinfo>
    <tripinfo id="-E7__1__car.0" depart="104.00" departLane="-E7_3" departPos="4.60" departPosLat="0.00" departSpeed="0.00" departDelay="0.81" arrival="168.00" arrivalLane="E5_3" arrivalPos="132.02" arrivalPosLat="0.00" arrivalSpeed="10.70" duration="64.00" routeLength="420.98" waitingTime="10.00" waitingCount="1" stopTime="0.00" timeLoss="25.25" rerouteNo="0" devices="tripinfo_-E7__1__car.0 emissions_-E7__1__car.0" vType="car" speedFactor="1.15" vaporized="">
        <emissions CO_abs="4780.824977" CO2_abs="175471.654021" HC_abs="25.812533" PMx_abs="3.038699" NOx_abs="71.865748" fuel_abs="55968.748153" electricity_abs="0"/>
    </tripinfo>
    <tripinfo id="-E9__2__motorbike.1" depart="135.00" departLane="-E9_3" departPos="2.10" departPosLat="0.00" departSpeed="0.00" departDelay="1.33" arrival="168.00" arrivalLane="E7_1" arrivalPos="144.88" arrivalPosLat="0.00" arrivalSpeed="10.62" duration="33.00" routeLength="289.44" waitingTime="0.00" waitingCount="0" stopTime="0.00" timeLoss="5.66" rerouteNo="0" devices="tripinfo_-E9__2__motorbike.1 emissions_-E9__2__motorbike.1" vType="motorbike" speedFactor="1.29" vaporized="">
        <emissions CO_abs="2280.951027" CO2_abs="68262.984003" HC_abs="10.110940" PMx_abs="3.261585" NOx_abs="15.622899" fuel_abs="21775.298514" electricity_abs="0"/>
    </tripinfo>
    <tripinfo id="-E1__2__motorbike.0" depart="121.00" departLane="-E1_2" departPos="2.10" departPosLat="0.00" departSpeed="0.00" departDelay="0.97" arrival="171.00" arrivalLane="E5_1" arrivalPos="132.02" arrivalPosLat="0.00" arrivalSpeed="10.86" duration="50.00" routeLength="456.59" waitingTime="0.00" waitingCount="0" stopTime="0.00" timeLoss="7.81" rerouteNo="0" devices="tripinfo_-E1__2__motorbike.0 emissions_-E1__2__motorbike.0" vType="motorbike" speedFactor="1.02" vaporized="">
        <emissions CO_abs="3067.161922" CO2_abs="98972.698976" HC_abs="13.755524" PMx_abs="4.431102" NOx_abs="22.885113" fuel_abs="31571.318500" electricity_abs="0"/>
    </tripinfo>