<?xml version="1.0" encoding="UTF-8"?>

<!-- generated on 2026-06-21 12:17:28 by Eclipse SUMO GUI Version 1.18.0
<configuration xmlns:xsi="http://www.w3.org/2001/XMLSchema-instance" xsi:noNamespaceSchemaLocation="http://sumo.dlr.de/xsd/sumoConfiguration.xsd">

    <input>
        <net-file value="Scenario/4nodes/env/4nodes.net.xml"/>
        <route-files value="Scenario/4nodes/env/../routes/vehicle.rou.xml"/>
        <additional-files value="Scenario/4nodes/env/../add/tls.add.xml,Scenario/4nodes/env/ ../add/e2.add.xml"/>
    </input>

    <output>
        <netstate-dump value="Scenario/4nodes/env/../output/e2.netstate.xml"/>
        <netstate-dump.precision value="2"/>
        <summary-output value="Scenario/4nodes/env/../output/e2_summary.output.xml"/>
        <tripinfo-output value="/home/hoanganh/Project/TSC-CoLight/deploy_4nodes_small.tripinfo.xml"/>
        <tripinfo-output.write-unfinished value="true"/>
    </output>

    <time>
        <begin value="0"/>
        <end value="504"/>
        <step-length value="1.0"/>
    </time>

    <processing>
        <lateral-resolution value="0.2"/>
        <time-to-teleport value="-1"/>
        <waiting-time-memory value="10000"/>
        <max-depart-delay value="100000"/>
    </processing>

    <report>
        <no-warnings value="true"/>
        <no-step-log value="true"/>
    </report>

    <emissions>
        <device.emissions.probability value="1.0"/>
    </emissions>

    <traci_server>
        <remote-port value="43043"/>
    </traci_server>

    <random_number>
        <random value="true"/>
    </random_number>

    <gui_only>
        <quit-on-end value="true"/>
        <start value="true"/>
    </gui_only>

</configuration>
-->

<tripinfos xmlns:xsi="http://www.w3.org/2001/XMLSchema-instance" xsi:noNamespaceSchemaLocation="http://sumo.dlr.de/xsd/tripinfo_file.xsd">
    <tripinfo id="-E5__0__motorbike.0" depart="12.00" departLane="-E5_3" departPos="2.10" departPosLat="0.00" departSpeed="0.00" departDelay="0.97" arrival="48.00" arrivalLane="E4_1" arrivalPos="143.61" arrivalPosLat="0.00" arrivalSpeed="10.82" duration="36.00" routeLength="320.87" waitingTime="0.00" waitingCount="0" stopTime="0.00" timeLoss="5.68" rerouteNo="0" devices="tripinfo_-E5__0__motorbike.0 emissions_-E5__0__motorbike.0" vType="motorbike" speedFactor="1.08" vaporized="">
        <emissions CO_abs="2506.035357" CO2_abs="88495.190539" HC_abs="11.424171" PMx_abs="3.684352" NOx_abs="20.656719" fuel_abs="28228.993675" electricity_abs="0"/>
    </tripinfo>
    <tripinfo id="-E9__0__motorbike.0" depart="16.00" departLane="-E9_2" departPos="2.10" departPosLat="0.00" departSpeed="0.00" departDelay="0.32" arrival="65.00" arrivalLane="E8_1" arrivalPos="201.31" arrivalPosLat="0.20" arrivalSpeed="9.95" duration="49.00" routeLength="421.26" waitingTime="0.00" waitingCount="0" stopTime="0.00" timeLoss="6.11" rerouteNo="0" devices="tripinfo_-E9__0__motorbike.0 emissions_-E9__0__motorbike.0" vType="motorbike" speedFactor="0.91" vaporized="">
        <emissions CO_abs="2732.559380" CO2_abs="91588.687110" HC_abs="12.201916" PMx_abs="3.850011" NOx_abs="21.573616" fuel_abs="29215.832452" electricity_abs="0"/>
    </tripinfo>
    <tripinfo id="-E9__0__car.1" depart="18.00" departLane="-E9_1" departPos="4.60" departPosLat="0.00" departSpeed="0.00" departDelay="1.25" arrival="67.00" arrivalLane="E8_2" arrivalPos="201.31" arrivalPosLat="0.00" arrivalSpeed="9.93" duration="49.00" routeLength="418.76" waitingTime="0.00" waitingCount="0" stopTime="0.00" timeLoss="7.71" rerouteNo="0" devices="tripinfo_-E9__0__car.1 emissions_-E9__0__car.1" vType="car" speedFactor="0.94" vaporized="">
        <emissions CO_abs="2054.834311" CO2_abs="116288.939429" HC_abs="11.973676" PMx_abs="1.511678" NOx_abs="44.253190" fuel_abs="37091.600855" electricity_abs="0"/>
    </tripinfo>
    <tripinfo id="E0__0__motorbike.1" depart="41.00" departLane="E0_1" departPos="2.10" departPosLat="0.00" departSpeed="0.00" departDelay="0.46" arrival="76.00" arrivalLane="E1_1" arrivalPos="164.31" arrivalPosLat="0.00" arrivalSpeed="10.84" duration="35.00" routeLength="302.09" waitingTime="0.00" waitingCount="0" stopTime="0.00" timeLoss="7.07" rerouteNo="0" devices="tripinfo_E0__0__motorbike.1 emissions_E0__0__motorbike.1" vType="motorbike" speedFactor="1.07" vaporized="">
        <emissions CO_abs="2741.484186" CO2_abs="84995.258180" HC_abs="12.227691" PMx_abs="3.949119" NOx_abs="19.521328" fuel_abs="27112.709612" electricity_abs="0"/>
    </tripinfo>
    <tripinfo id="-E5__0__motorbike.2" depart="41.00" departLane="-E5_3" departPos="2.10" departPosLat="0.00" departSpeed="0.00" departDelay="0.15" arrival="78.00" arrivalLane="E4_1" arrivalPos="143.61" arrivalPosLat="0.00" arrivalSpeed="10.69" duration="37.00" routeLength="320.87" waitingTime="0.00" waitingCount="0" stopTime="0.00" timeLoss="7.35" rerouteNo="0" devices="tripinfo_-E5__0__motorbike.2 emissions_-E5__0__motorbike.2" vType="motorbike" speedFactor="1.03" vaporized="">
        <emissions CO_abs="2645.128699" CO2_abs="83316.162710" HC_abs="11.772212" PMx_abs="3.764809" NOx_abs="19.312147" fuel_abs="26577.054775" electricity_abs="0"/>
    </tripinfo>
    <tripinfo id="-E11__0__car.1" depart="27.00" departLane="-E11_3" departPos="4.60" departPosLat="0.00" departSpeed="0.00" departDelay="0.05" arrival="83.00" arrivalLane="E10_2" arrivalPos="216.74" arrivalPosLat="0.00" arrivalSpeed="10.31" duration="56.00" routeLength="495.36" waitingTime="0.00" waitingCount="0" stopTime="0.00" timeLoss="10.13" rerouteNo="0" devices="tripinfo_-E11__0__car.1 emissions_-E11__0__car.1" vType="car" speedFactor="1.00" vaporized="">
        <emissions CO_abs="2282.251235" CO2_abs="131951.095342" HC_abs="13.392346" PMx_abs="1.861251" NOx_abs="51.112955" fuel_abs="42087.018812" electricity_abs="0"/>
    </tripinfo>
    <tripinfo id="-E11__0__car.0" depart="21.00" departLane="-E11_2" departPos="4.60" departPosLat="0.00" departSpeed="0.00" departDelay="0.68" arrival="86.00" arrivalLane="E10_1" arrivalPos="216.74" arrivalPosLat="0.00" arrivalSpeed="8.35" duration="65.00" routeLength="495.36" waitingTime="0.00" waitingCount="0" stopTime="0.00" timeLoss="6.77" rerouteNo="0" devices="tripinfo_-E11__0__car.0 emissions_-E11__0__car.0" vType="car" speedFactor="0.78" vaporized="">
        <emissions CO_abs="2750.884815" CO2_abs="132262.380901" HC_abs="15.481074" PMx_abs="1.695163" NOx_abs="50.572912" fuel_abs="42186.756348" electricity_abs="0"/>
    </tripinfo>
    <tripinfo id="-E10__0__motorbike.0" depart="11.00" departLane="-E10_2" departPos="2.10" departPosLat="0.00" departSpeed="0.00" departDelay="0.18" arrival="92.00" arrivalLane="E9_2" arrivalPos="212.89" arrivalPosLat="0.00" arrivalSpeed="10.63" duration="81.00" routeLength="676.76" waitingTime="0.00" waitingCount="0" stopTime="0.00" timeLoss="18.38" rerouteNo="0" devices="tripinfo_-E10__0__motorbike.0 emissions_-E10__0__motorbike.0" vType="motorbike" speedFactor="1.09" vaporized="">
        <emissions CO_abs="4701.194565" CO2_abs="157499.549626" HC_abs="21.147951" PMx_abs="6.779397" NOx_abs="36.703125" fuel_abs="50240.773016" electricity_abs="0"/>
    </tripinfo>
    <tripinfo id="E0__0__motorbike.3" depart="53.00" departLane="E0_1" departPos="2.10" departPosLat="0.00" departSpeed="0.00" departDelay="0.87" arrival="92.00" arrivalLane="E1_2" arrivalPos="164.31" arrivalPosLat="0.00" arrivalSpeed="9.28" duration="39.00" routeLength="302.09" waitingTime="0.00" waitingCount="0" stopTime="0.00" timeLoss="6.68" rerouteNo="0" devices="tripinfo_E0__0__motorbike.3 emissions_E0__0__motorbike.3" vType="motorbike" speedFactor="0.88" vaporized="">
        <emissions CO_abs="2568.608395" CO2_abs="77457.465660" HC_abs="11.192341" PMx_abs="3.479262" NOx_abs="18.231818" fuel_abs="24708.203883" electricity_abs="0"/>
    </tripinfo>
    <tripinfo id="-E9__0__motorbike.1" depart="47.00" departLane="-E9_3" departPos="2.10" departPosLat="0.00" departSpeed="0.00" departDelay="0.98" arrival="93.00" arrivalLane="E8_2" arrivalPos="201.31" arrivalPosLat="0.00" arrivalSpeed="10.43" duration="46.00" routeLength="421.26" waitingTime="0.00" waitingCount="0" stopTime="0.00" timeLoss="6.40" rerouteNo="0" devices="tripinfo_-E9__0__motorbike.1 emissions_-E9__0__motorbike.1" vType="motorbike" speedFactor="0.98" vaporized="">
        <emissions CO_abs="2774.462406" CO2_abs="96267.498857" HC_abs="12.610067" PMx_abs="4.069851" NOx_abs="22.418006" fuel_abs="30708.304773" electricity_abs="0"/>
    </tripinfo>
    <tripinfo id="-E10__0__car.0" depart="8.00" departLane="-E10_1" departPos="4.60" departPosLat="0.00" departSpeed="0.00" departDelay="0.29" arrival="95.00" arrivalLane="E9_1" arrivalPos="212.89" arrivalPosLat="0.00" arrivalSpeed="8.56" duration="87.00" routeLength="674.26" waitingTime="0.00" waitingCount="0" stopTime="0.00" timeLoss="7.48" rerouteNo="0" devices="tripinfo_-E10__0__car.0 emissions_-E10__0__car.0" vType="car" speedFactor="0.78" vaporized="">
        <emissions CO_abs="3508.961686" CO2_abs="176049.979048" HC_abs="19.909139" PMx_abs="2.219575" NOx_abs="67.057044" fuel_abs="56153.310074" electricity_abs="0"/>
    </tripinfo>
    <tripinfo id="-E8__0__motorbike.0" depart="6.00" departLane="-E8_2" departPos="2.10" departPosLat="0.00" departSpeed="0.00" departDelay="0.32" arrival="101.00" arrivalLane="E9_2" arrivalPos="212.89" arrivalPosLat="0.00" arrivalSpeed="10.78" duration="95.00" routeLength="437.18" waitingTime="45.00" waitingCount="1" stopTime="0.00" timeLoss="54.90" rerouteNo="0" devices="tripinfo_-E8__0__motorbike.0 emissions_-E8__0__motorbike.0" vType="motorbike" speedFactor="1.01" vaporized="">
        <emissions CO_abs="11458.672216" CO2_abs="165601.079298" HC_abs="44.019821" PMx_abs="12.335569" NOx_abs="39.668558" fuel_abs="52826.388369" electricity_abs="0"/>
    </tripinfo>
    <tripinfo id="E0__1__motorbike.0" depart="65.00" departLane="E0_1" departPos="2.10" departPosLat="0.00" departSpeed="0.00" departDelay="0.84" arrival="101.00" arrivalLane="E1_1" arrivalPos="164.31" arrivalPosLat="0.00" arrivalSpeed="10.88" duration="36.00" routeLength="302.09" waitingTime="0.00" waitingCount="0" stopTime="0.00" timeLoss="7.73" rerouteNo="0" devices="tripinfo_E0__1__motorbike.0 emissions_E0__1__motorbike.0" vType="motorbike" speedFactor="1.16" vaporized="">
        <emissions CO_abs="2650.246082" CO2_abs="84840.772793" HC_abs="11.807724" PMx_abs="3.765400" NOx_abs="19.739005" fuel_abs="27063.373267" electricity_abs="0"/>
    </tripinfo>
    <tripinfo id="-E1__0__motorbike.1" depart="27.00" departLane="-E1_3" departPos="2.10" departPosLat="0.00" departSpeed="0.00" departDelay="0.30" arrival="102.00" arrivalLane="E11_1" arrivalPos="274.15" arrivalPosLat="0.00" arrivalSpeed="8.91" duration="75.00" routeLength="611.25" waitingTime="0.00" waitingCount="0" stopTime="0.00" timeLoss="8.23" rerouteNo="0" devices="tripinfo_-E1__0__motorbike.1 emissions_-E1__0__motorbike.1" vType="motorbike" speedFactor="0.85" vaporized="">
        <emissions CO_abs="4018.509375" CO2_abs="129965.683729" HC_abs="17.819180" PMx_abs="5.618548" NOx_abs="30.513728" fuel_abs="41457.780091" electricity_abs="0"/>
    </tripinfo>
    <tripinfo id="-E1__0__motorbike.2" depart="37.00" departLane="-E1_3" departPos="2.10" departPosLat="0.00" departSpeed="0.00" departDelay="0.21" arrival="109.00" arrivalLane="E10_1" arrivalPos="216.74" arrivalPosLat="0.00" arrivalSpeed="8.71" duration="72.00" routeLength="572.06" waitingTime="0.00" waitingCount="0" stopTime="0.00" timeLoss="7.13" rerouteNo="0" devices="tripinfo_-E1__0__motorbike.2 emissions_-E1__0__motorbike.2" vType="motorbike" speedFactor="0.81" vaporized="">
        <emissions CO_abs="3379.014378" CO2_abs="112088.273509" HC_abs="14.793830" PMx_abs="4.500057" NOx_abs="26.984356" fuel_abs="35754.957191" electricity_abs="0"/>
    </tripinfo>
    <tripinfo id="E0__0__motorbike.2" depart="48.00" departLane="E0_2" departPos="2.10" departPosLat="0.00" departSpeed="0.00" departDelay="0.08" arrival="113.00" arrivalLane="E11_1" arrivalPos="274.15" arrivalPosLat="0.00" arrivalSpeed="9.95" duration="65.00" routeLength="595.91" waitingTime="0.00" waitingCount="0" stopTime="0.00" timeLoss="7.91" rerouteNo="0" devices="tripinfo_E0__0__motorbike.2 emissions_E0__0__motorbike.2" vType="motorbike" speedFactor="0.96" vaporized="">
        <emissions CO_abs="3316.168245" CO2_abs="118078.632736" HC_abs="15.048843" PMx_abs="4.797298" NOx_abs="27.795606" fuel_abs="37665.762774" electricity_abs="0"/>
    </tripinfo>
    <tripinfo id="-E9__0__car.0" depart="1.00" departLane="-E9_1" departPos="4.60" departPosLat="0.00" departSpeed="0.00" departDelay="0.16" arrival="114.00" arrivalLane="E4_2" arrivalPos="143.61" arrivalPosLat="0.00" arrivalSpeed="9.61" duration="113.00" routeLength="560.11" waitingTime="45.00" waitingCount="1" stopTime="0.00" timeLoss="55.43" rerouteNo="0" devices="tripinfo_-E9__0__car.0 emissions_-E9__0__car.0" vType="car" speedFactor="0.88" vaporized="">
        <emissions CO_abs="10387.934761" CO2_abs="271851.217467" HC_abs="53.531961" PMx_abs="4.993241" NOx_abs="112.992113" fuel_abs="86711.727583" electricity_abs="0"/>
    </tripinfo>
    <tripinfo id="-E8__0__motorbike.2" depart="49.00" departLane="-E8_2" departPos="2.10" departPosLat="0.00" departSpeed="0.00" departDelay="0.77" arrival="115.00" arrivalLane="E4_2" arrivalPos="143.61" arrivalPosLat="0.00" arrivalSpeed="9.90" duration="66.00" routeLength="533.10" waitingTime="2.00" waitingCount="1" stopTime="0.00" timeLoss="17.40" rerouteNo="0" devices="tripinfo_-E8__0__motorbike.2 emissions_-E8__0__motorbike.2" vType="motorbike" speedFactor="1.06" vaporized="">
        <emissions CO_abs="5431.315852" CO2_abs="143969.424014" HC_abs="23.343850" PMx_abs="7.322732" NOx_abs="33.177451" fuel_abs="45925.111993" electricity_abs="0"/>
    </tripinfo>
    <tripinfo id="E0__1__motorbike.1" depart="84.00" departLane="E0_3" departPos="2.10" departPosLat="0.00" departSpeed="0.00" departDelay="0.65" arrival="118.00" arrivalLane="E1_1" arrivalPos="164.31" arrivalPosLat="0.00" arrivalSpeed="10.80" duration="34.00" routeLength="302.09" waitingTime="0.00" waitingCount="0" stopTime="0.00" timeLoss="6.32" rerouteNo="0" devices="tripinfo_E0__1__motorbike.1 emissions_E0__1__motorbike.1" vType="motorbike" speedFactor="1.08" vaporized="">
        <emissions CO_abs="2557.768649" CO2_abs="82478.375466" HC_abs="11.474254" PMx_abs="3.700469" NOx_abs="19.054188" fuel_abs="26309.799664" electricity_abs="0"/>
    </tripinfo>
    <tripinfo id="-E5__0__car.0" depart="7.00" departLane="-E5_1" departPos="4.60" departPosLat="0.00" departSpeed="0.00" departDelay="0.46" arrival="119.00" arrivalLane="-E0_1" arrivalPos="130.83" arrivalPosLat="0.00" arrivalSpeed="10.40" duration="112.00" routeLength="559.25" waitingTime="46.00" waitingCount="1" stopTime="0.00" timeLoss="59.69" rerouteNo="0" devices="tripinfo_-E5__0__car.0 emissions_-E5__0__car.0" vType="car" speedFactor="0.97" vaporized="">
        <emissions CO_abs="10790.848446" CO2_abs="288891.551181" HC_abs="55.789993" PMx_abs="5.445189" NOx_abs="120.722761" fuel_abs="92146.757625" electricity_abs="0"/>
    </tripinfo>
    <tripinfo id="-E11__1__motorbike.0" depart="65.00" departLane="-E11_3" departPos="2.10" departPosLat="0.00" departSpeed="0.00" departDelay="0.46" arrival="123.00" arrivalLane="E10_1" arrivalPos="216.74" arrivalPosLat="0.00" arrivalSpeed="9.23" duration="58.00" routeLength="497.86" waitingTime="0.00" waitingCount="0" stopTime="0.00" timeLoss="6.47" rerouteNo="0" devices="tripinfo_-E11__1__motorbike.0 emissions_-E11__1__motorbike.0" vType="motorbike" speedFactor="0.89" vaporized="">
        <emissions CO_abs="2978.502726" CO2_abs="104877.496177" HC_abs="13.364023" PMx_abs="4.185212" NOx_abs="24.937455" fuel_abs="33454.756881" electricity_abs="0"/>
    </tripinfo>
    <tripinfo id="-E5__1__motorbike.0" depart="87.00" departLane="-E5_3" departPos="2.10" departPosLat="0.00" departSpeed="0.00" departDelay="0.77" arrival="123.00" arrivalLane="E4_1" arrivalPos="143.61" arrivalPosLat="0.00" arrivalSpeed="11.10" duration="36.00" routeLength="320.87" waitingTime="0.00" waitingCount="0" stopTime="0.00" timeLoss="6.51" rerouteNo="0" devices="tripinfo_-E5__1__motorbike.0 emissions_-E5__1__motorbike.0" vType="motorbike" speedFactor="1.10" vaporized="">
        <emissions CO_abs="2688.258884" CO2_abs="81365.883790" HC_abs="11.931859" PMx_abs="3.843679" NOx_abs="18.667699" fuel_abs="25954.987309" electricity_abs="0"/>
    </tripinfo>
    <tripinfo id="-E9__1__car.0" depart="76.00" departLane="-E9_2" departPos="4.60" departPosLat="0.00" departSpeed="0.00" departDelay="0.41" arrival="127.00" arrivalLane="E8_1" arrivalPos="201.31" arrivalPosLat="0.00" arrivalSpeed="9.58" duration="51.00" routeLength="418.76" waitingTime="0.00" waitingCount="0" stopTime="0.00" timeLoss="6.88" rerouteNo="0" devices="tripinfo_-E9__1__car.0 emissions_-E9__1__car.0" vType="car" speedFactor="0.88" vaporized="">
        <emissions CO_abs="2239.706229" CO2_abs="119746.251607" HC_abs="12.888631" PMx_abs="1.554770" NOx_abs="45.693496" fuel_abs="38194.414304" electricity_abs="0"/>
    </tripinfo>
    <tripinfo id="-E5__1__motorbike.2" depart="92.00" departLane="-E5_2" departPos="2.10" departPosLat="0.00" departSpeed="0.00" departDelay="0.92" arrival="129.00" arrivalLane="E4_1" arrivalPos="143.61" arrivalPosLat="0.00" arrivalSpeed="10.93" duration="37.00" routeLength="320.87" waitingTime="0.00" waitingCount="0" stopTime="0.00" timeLoss="7.19" rerouteNo="0" devices="tripinfo_-E5__1__motorbike.2 emissions_-E5__1__motorbike.2" vType="motorbike" speedFactor="1.06" vaporized="">
        <emissions CO_abs="2686.081486" CO2_abs="87733.346317" HC_abs="12.064780" PMx_abs="3.882608" NOx_abs="20.330693" fuel_abs="27986.060829" electricity_abs="0"/>
    </tripinfo>
    <tripinfo id="-E1__0__motorbike.3" depart="55.00" departLane="-E1_2" departPos="2.10" departPosLat="0.00" departSpeed="0.00" departDelay="0.06" arrival="130.00" arrivalLane="-E0_3" arrivalPos="130.83" arrivalPosLat="0.00" arrivalSpeed="10.43" duration="75.00" routeLength="317.65" waitingTime="34.00" waitingCount="1" stopTime="0.00" timeLoss="45.83" rerouteNo="0" devices="tripinfo_-E1__0__motorbike.3 emissions_-E1__0__motorbike.3" vType="motorbike" speedFactor="1.10" vaporized="">
        <emissions CO_abs="9535.150637" CO2_abs="126495.730992" HC_abs="36.415129" PMx_abs="10.235872" NOx_abs="29.929671" fuel_abs="40352.161578" electricity_abs="0"/>
    </tripinfo>
    <tripinfo id="-E5__1__motorbike.1" depart="87.00" departLane="-E5_1" departPos="2.10" departPosLat="0.00" departSpeed="0.00" departDelay="0.60" arrival="132.00" arrivalLane="E4_2" arrivalPos="143.61" arrivalPosLat="0.00" arrivalSpeed="9.28" duration="45.00" routeLength="320.87" waitingTime="1.00" waitingCount="1" stopTime="0.00" timeLoss="11.23" rerouteNo="0" devices="tripinfo_-E5__1__motorbike.1 emissions_-E5__1__motorbike.1" vType="motorbike" speedFactor="0.89" vaporized="">
        <emissions CO_abs="3721.961061" CO2_abs="91551.970722" HC_abs="15.718454" PMx_abs="4.863423" NOx_abs="21.131210" fuel_abs="29204.471453" electricity_abs="0"/>
    </tripinfo>
    <tripinfo id="-E8__0__motorbike.1" depart="36.00" departLane="-E8_3" departPos="2.10" departPosLat="0.00" departSpeed="0.00" departDelay="0.09" arrival="135.00" arrivalLane="E11_1" arrivalPos="274.15" arrivalPosLat="0.00" arrivalSpeed="10.16" duration="99.00" routeLength="758.28" waitingTime="12.00" waitingCount="1" stopTime="0.00" timeLoss="24.09" rerouteNo="0" devices="tripinfo_-E8__0__motorbike.1 emissions_-E8__0__motorbike.1" vType="motorbike" speedFactor="0.92" vaporized="">
        <emissions CO_abs="6770.068884" CO2_abs="168681.626288" HC_abs="28.205620" PMx_abs="8.400763" NOx_abs="40.224275" fuel_abs="53807.976852" electricity_abs="0"/>
    </tripinfo>
    <tripinfo id="-E11__0__motorbike.0" depart="7.00" departLane="-E11_1" departPos="2.10" departPosLat="0.00" departSpeed="0.00" departDelay="0.20" arrival="136.00" arrivalLane="E8_2" arrivalPos="201.31" arrivalPosLat="1.15" arrivalSpeed="10.63" duration="129.00" routeLength="758.39" waitingTime="41.00" waitingCount="2" stopTime="0.00" timeLoss="59.94" rerouteNo="0" devices="tripinfo_-E11__0__motorbike.0 emissions_-E11__0__motorbike.0" vType="motorbike" speedFactor="0.99" vaporized="">
        <emissions CO_abs="13133.445396" CO2_abs="234442.658899" HC_abs="51.802916" PMx_abs="14.797210" NOx_abs="56.154804" fuel_abs="74785.962153" electricity_abs="0"/>
    </tripinfo>
    <tripinfo id="-E8__0__motorbike.3" depart="57.00" departLane="-E8_3" departPos="2.10" departPosLat="0.00" departSpeed="0.00" departDelay="0.85" arrival="136.00" arrivalLane="E11_2" arrivalPos="274.15" arrivalPosLat="0.00" arrivalSpeed="10.36" duration="79.00" routeLength="758.28" waitingTime="0.00" waitingCount="0" stopTime="0.00" timeLoss="6.68" rerouteNo="0" devices="tripinfo_-E8__0__motorbike.3 emissions_-E8__0__motorbike.3" vType="motorbike" speedFactor="0.95" vaporized="">
        <emissions CO_abs="3080.126776" CO2_abs="129485.702620" HC_abs="14.409775" PMx_abs="4.573047" NOx_abs="31.025270" fuel_abs="41304.229914" electricity_abs="0"/>
    </tripinfo>
    <tripinfo id="-E11__0__motorbike.1" depart="13.00" departLane="-E11_1" departPos="2.10" departPosLat="0.00" departSpeed="0.00" departDelay="0.68" arrival="137.00" arrivalLane="E8_1" arrivalPos="201.31" arrivalPosLat="1.15" arrivalSpeed="10.44" duration="124.00" routeLength="758.39" waitingTime="34.00" waitingCount="2" stopTime="0.00" timeLoss="50.53" rerouteNo="0" devices="tripinfo_-E11__0__motorbike.1 emissions_-E11__0__motorbike.1" vType="motorbike" speedFactor="0.94" vaporized="">
        <emissions CO_abs="11633.990428" CO2_abs="220060.669995" HC_abs="46.306750" PMx_abs="13.345878" NOx_abs="52.558536" fuel_abs="70198.092114" electricity_abs="0"/>
    </tripinfo>
    <tripinfo id="-E10__0__motorbike.1" depart="20.00" departLane="-E10_2" departPos="2.10" departPosLat="0.00" departSpeed="0.00" departDelay="0.72" arrival="137.00" arrivalLane="E8_2" arrivalPos="201.31" arrivalPosLat="0.00" arrivalSpeed="10.24" duration="117.00" routeLength="682.98" waitingTime="38.00" waitingCount="1" stopTime="0.00" timeLoss="49.92" rerouteNo="0" devices="tripinfo_-E10__0__motorbike.1 emissions_-E10__0__motorbike.1" vType="motorbike" speedFactor="0.93" vaporized="">
        <emissions CO_abs="11497.740611" CO2_abs="206259.299377" HC_abs="45.238807" PMx_abs="12.839702" NOx_abs="49.720360" fuel_abs="65795.609956" electricity_abs="0"/>
    </tripinfo>
    <tripinfo id="-E8__1__motorbike.1" depart="76.00" departLane="-E8_3" departPos="2.10" departPosLat="0.00" departSpeed="0.00" departDelay="0.92" arrival="137.00" arrivalLane="E5_2" arrivalPos="170.02" arrivalPosLat="0.00" arrivalSpeed="10.91" duration="61.00" routeLength="541.19" waitingTime="0.00" waitingCount="0" stopTime="0.00" timeLoss="10.20" rerouteNo="0" devices="tripinfo_-E8__1__motorbike.1 emissions_-E8__1__motorbike.1" vType="motorbike" speedFactor="0.99" vaporized="">
        <emissions CO_abs="3990.077154" CO2_abs="131075.167506" HC_abs="17.976711" PMx_abs="5.812671" NOx_abs="30.293170" fuel_abs="41811.685506" electricity_abs="0"/>
    </tripinfo>
    <tripinfo id="-E9__1__motorbike.1" depart="90.00" departLane="-E9_1" departPos="2.10" departPosLat="0.00" departSpeed="0.00" departDelay="0.17" arrival="137.00" arrivalLane="E8_1" arrivalPos="201.31" arrivalPosLat="0.00" arrivalSpeed="10.27" duration="47.00" routeLength="421.26" waitingTime="0.00" waitingCount="0" stopTime="0.00" timeLoss="7.02" rerouteNo="0" devices="tripinfo_-E9__1__motorbike.1 emissions_-E9__1__motorbike.1" vType="motorbike" speedFactor="0.98" vaporized="">
        <emissions CO_abs="2800.436419" CO2_abs="97169.477180" HC_abs="12.651310" PMx_abs="4.031960" NOx_abs="22.816419" fuel_abs="30995.996244" electricity_abs="0"/>
    </tripinfo>
    <tripinfo id="E0__0__motorbike.0" depart="16.00" departLane="E0_1" departPos="2.10" departPosLat="0.00" departSpeed="0.00" departDelay="0.07" arrival="138.00" arrivalLane="E8_3" arrivalPos="201.31" arrivalPosLat="0.00" arrivalSpeed="10.37" duration="122.00" routeLength="796.09" waitingTime="32.00" waitingCount="2" stopTime="0.00" timeLoss="49.57" rerouteNo="0" devices="tripinfo_E0__0__motorbike.0 emissions_E0__0__motorbike.0" vType="motorbike" speedFactor="1.01" vaporized="">
        <emissions CO_abs="12194.416249" CO2_abs="237876.163132" HC_abs="49.185285" PMx_abs="14.516794" NOx_abs="55.760303" fuel_abs="75881.184969" electricity_abs="0"/>
    </tripinfo>
    <tripinfo id="-E9__1__motorbike.0" depart="79.00" departLane="-E9_2" departPos="2.10" departPosLat="0.00" departSpeed="0.00" departDelay="0.16" arrival="139.00" arrivalLane="E5_2" arrivalPos="170.02" arrivalPosLat="0.00" arrivalSpeed="10.63" duration="60.00" routeLength="570.70" waitingTime="0.00" waitingCount="0" stopTime="0.00" timeLoss="7.56" rerouteNo="0" devices="tripinfo_-E9__1__motorbike.0 emissions_-E9__1__motorbike.0" vType="motorbike" speedFactor="1.00" vaporized="">
        <emissions CO_abs="3043.135346" CO2_abs="119956.084987" HC_abs="14.138223" PMx_abs="4.542357" NOx_abs="28.377478" fuel_abs="38264.509322" electricity_abs="0"/>
    </tripinfo>
    <tripinfo id="-E10__1__car.0" depart="70.00" departLane="-E10_1" departPos="4.60" departPosLat="0.00" departSpeed="0.00" departDelay="0.69" arrival="143.00" arrivalLane="E9_2" arrivalPos="212.89" arrivalPosLat="0.00" arrivalSpeed="10.68" duration="73.00" routeLength="674.26" waitingTime="0.00" waitingCount="0" stopTime="0.00" timeLoss="11.29" rerouteNo="0" devices="tripinfo_-E10__1__car.0 emissions_-E10__1__car.0" vType="car" speedFactor="1.09" vaporized="">
        <emissions CO_abs="2720.563198" CO2_abs="173210.733566" HC_abs="16.311818" PMx_abs="2.332208" NOx_abs="66.119741" fuel_abs="55247.135220" electricity_abs="0"/>
    </tripinfo>
    <tripinfo id="-E10__1__motorbike.0" depart="61.00" departLane="-E10_2" departPos="2.10" departPosLat="0.00" departSpeed="0.00" departDelay="0.97" arrival="145.00" arrivalLane="E9_1" arrivalPos="212.89" arrivalPosLat="0.00" arrivalSpeed="9.21" duration="84.00" routeLength="676.76" waitingTime="0.00" waitingCount="0" stopTime="0.00" timeLoss="9.05" rerouteNo="0" devices="tripinfo_-E10__1__motorbike.0 emissions_-E10__1__motorbike.0" vType="motorbike" speedFactor="0.84" vaporized="">
        <emissions CO_abs="4104.739364" CO2_abs="134663.492527" HC_abs="18.093822" PMx_abs="5.606873" NOx_abs="32.021014" fuel_abs="42956.269309" electricity_abs="0"/>
    </tripinfo>
    <tripinfo id="E0__1__motorbike.2" depart="112.00" departLane="E0_1" departPos="2.10" departPosLat="0.00" departSpeed="0.00" departDelay="0.48" arrival="147.00" arrivalLane="E1_1" arrivalPos="164.31" arrivalPosLat="0.00" arrivalSpeed="10.70" duration="35.00" routeLength="302.09" waitingTime="0.00" waitingCount="0" stopTime="0.00" timeLoss="7.27" rerouteNo="0" devices="tripinfo_E0__1__motorbike.2 emissions_E0__1__motorbike.2" vType="motorbike" speedFactor="1.13" vaporized="">
        <emissions CO_abs="2602.467104" CO2_abs="82424.295489" HC_abs="11.627256" PMx_abs="3.742030" NOx_abs="19.029159" fuel_abs="26292.567106" electricity_abs="0"/>
    </tripinfo>
    <tripinfo id="-E9__1__motorbike.2" depart="104.00" departLane="-E9_3" departPos="2.10" departPosLat="0.00" departSpeed="0.00" departDelay="0.72" arrival="150.00" arrivalLane="E8_2" arrivalPos="201.31" arrivalPosLat="0.00" arrivalSpeed="10.66" duration="46.00" routeLength="421.26" waitingTime="0.00" waitingCount="0" stopTime="0.00" timeLoss="7.11" rerouteNo="0" devices="tripinfo_-E9__1__motorbike.2 emissions_-E9__1__motorbike.2" vType="motorbike" speedFactor="1.02" vaporized="">
        <emissions CO_abs="2795.638555" CO2_abs="96126.057841" HC_abs="12.634466" PMx_abs="4.043068" NOx_abs="22.488407" fuel_abs="30663.175301" electricity_abs="0"/>
    </tripinfo>
    <tripinfo id="E0__1__motorbike.3" depart="114.00" departLane="E0_1" departPos="2.10" departPosLat="0.00" departSpeed="0.00" departDelay="0.55" arrival="151.00" arrivalLane="E1_2" arrivalPos="164.31" arrivalPosLat="0.00" arrivalSpeed="10.12" duration="37.00" routeLength="302.09" waitingTime="0.00" waitingCount="0" stopTime="0.00" timeLoss="6.66" rerouteNo="0" devices="tripinfo_E0__1__motorbike.3 emissions_E0__1__motorbike.3" vType="motorbike" speedFactor="0.94" vaporized="">
        <emissions CO_abs="2574.557574" CO2_abs="81352.802014" HC_abs="11.342360" PMx_abs="3.549949" NOx_abs="19.149909" fuel_abs="25950.730953" electricity_abs="0"/>
    </tripinfo>
    <tripinfo id="E0__2__motorbike.0" depart="122.00" departLane="E0_3" departPos="2.10" departPosLat="0.00" departSpeed="0.00" departDelay="0.46" arrival="157.00" arrivalLane="E1_1" arrivalPos="164.31" arrivalPosLat="0.00" arrivalSpeed="10.43" duration="35.00" routeLength="302.09" waitingTime="0.00" waitingCount="0" stopTime="0.00" timeLoss="6.67" rerouteNo="0" devices="tripinfo_E0__2__motorbike.0 emissions_E0__2__motorbike.0" vType="motorbike" speedFactor="1.11" vaporized="">
        <emissions CO_abs="2536.315252" CO2_abs="79049.304482" HC_abs="11.294299" PMx_abs="3.629458" NOx_abs="18.234669" fuel_abs="25215.990081" electricity_abs="0"/>
    </tripinfo>
    <tripinfo id="-E4__0__motorbike.0" depart="29.00" departLane="-E4_3" departPos="2.10" departPosLat="0.00" departSpeed="0.00" departDelay="0.21" arrival="158.00" arrivalLane="E9_1" arrivalPos="212.89" arrivalPosLat="0.00" arrivalSpeed="10.86" duration="129.00" routeLength="562.93" waitingTime="55.00" waitingCount="2" stopTime="0.00" timeLoss="77.97" rerouteNo="0" devices="tripinfo_-E4__0__motorbike.0 emissions_-E4__0__motorbike.0" vType="motorbike" speedFactor="1.20" vaporized="">
        <emissions CO_abs="15599.856457" CO2_abs="223493.650648" HC_abs="59.974062" PMx_abs="16.889746" NOx_abs="53.181410" fuel_abs="71294.166957" electricity_abs="0"/>
    </tripinfo>