<?xml version="1.0" encoding="UTF-8"?>

<!-- generated on 2026-06-21 11:12:46 by Eclipse SUMO GUI Version 1.18.0
<configuration xmlns:xsi="http://www.w3.org/2001/XMLSchema-instance" xsi:noNamespaceSchemaLocation="http://sumo.dlr.de/xsd/sumoConfiguration.xsd">

    <input>
        <net-file value="Scenario/3nodes/env/3nodes.net.xml"/>
        <route-files value="Scenario/3nodes/env/../routes/vehicle.rou.xml"/>
        <additional-files value="Scenario/3nodes/env/../add/tls.add.xml,Scenario/3nodes/env/ ../add/e2.add.xml"/>
    </input>

    <output>
        <netstate-dump value="Scenario/3nodes/env/../output/e2.netstate.xml"/>
        <netstate-dump.precision value="2"/>
        <summary-output value="Scenario/3nodes/env/../output/e2_summary.output.xml"/>
        <tripinfo-output value="/home/hoanganh/Project/TSC-CoLight/deploy_4nodes_medium.tripinfo.xml"/>
        <tripinfo-output.write-unfinished value="true"/>
    </output>

    <time>
        <begin value="0"/>
        <end value="504"/>
        <step-length value="1.0"/>
    </time>

    <processing>
        <lateral-resolution value="0.2"/>
        <time-to-teleport value="-1"/>
        <waiting-time-memory value="10000"/>
        <max-depart-delay value="100000"/>
    </processing>

    <report>
        <no-warnings value="true"/>
        <no-step-log value="true"/>
    </report>

    <emissions>
        <device.emissions.probability value="1.0"/>
    </emissions>

    <traci_server>
        <remote-port value="56203"/>
    </traci_server>

    <random_number>
        <random value="true"/>
    </random_number>

    <gui_only>
        <quit-on-end value="true"/>
        <start value="true"/>
    </gui_only>

</configuration>
-->

<tripinfos xmlns:xsi="http://www.w3.org/2001/XMLSchema-instance" xsi:noNamespaceSchemaLocation="http://sumo.dlr.de/xsd/tripinfo_file.xsd">
    <tripinfo id="-E8__0__car.0" depart="4.00" departLane="-E8_3" departPos="4.60" departPosLat="0.00" departSpeed="0.00" departDelay="1.69" arrival="35.00" arrivalLane="E9_1" arrivalPos="137.53" arrivalPosLat="0.00" arrivalSpeed="10.70" duration="31.00" routeLength="267.46" waitingTime="0.00" waitingCount="0" stopTime="0.00" timeLoss="6.32" rerouteNo="0" devices="tripinfo_-E8__0__car.0 emissions_-E8__0__car.0" vType="car" speedFactor="1.06" vaporized="">
        <emissions CO_abs="1600.994655" CO2_abs="85997.661739" HC_abs="9.259866" PMx_abs="1.305238" NOx_abs="33.961696" fuel_abs="27429.708720" electricity_abs="0"/>
    </tripinfo>
    <tripinfo id="-E2__0__car.0" depart="1.00" departLane="-E2_1" departPos="4.60" departPosLat="0.00" departSpeed="0.00" departDelay="0.97" arrival="42.00" arrivalLane="E1_3" arrivalPos="153.25" arrivalPosLat="0.00" arrivalSpeed="10.63" duration="41.00" routeLength="318.38" waitingTime="0.00" waitingCount="0" stopTime="0.00" timeLoss="11.62" rerouteNo="0" devices="tripinfo_-E2__0__car.0 emissions_-E2__0__car.0" vType="car" speedFactor="1.03" vaporized="">
        <emissions CO_abs="2251.831555" CO2_abs="110772.158544" HC_abs="12.789522" PMx_abs="1.707371" NOx_abs="43.954971" fuel_abs="35331.839472" electricity_abs="0"/>
    </tripinfo>
    <tripinfo id="-E2__0__car.1" depart="5.00" departLane="-E2_1" departPos="4.60" departPosLat="0.00" departSpeed="0.00" departDelay="0.46" arrival="45.00" arrivalLane="E1_3" arrivalPos="153.25" arrivalPosLat="0.00" arrivalSpeed="9.87" duration="40.00" routeLength="318.38" waitingTime="0.00" waitingCount="0" stopTime="0.00" timeLoss="8.37" rerouteNo="0" devices="tripinfo_-E2__0__car.1 emissions_-E2__0__car.1" vType="car" speedFactor="0.93" vaporized="">
        <emissions CO_abs="1993.170594" CO2_abs="104061.215543" HC_abs="11.425880" PMx_abs="1.420256" NOx_abs="40.138552" fuel_abs="33191.448061" electricity_abs="0"/>
    </tripinfo>
    <tripinfo id="-E2__0__motorbike.0" depart="6.00" departLane="-E2_2" departPos="2.10" departPosLat="0.00" departSpeed="0.00" departDelay="0.01" arrival="46.00" arrivalLane="E1_3" arrivalPos="153.25" arrivalPosLat="0.00" arrivalSpeed="10.26" duration="40.00" routeLength="320.88" waitingTime="0.00" waitingCount="0" stopTime="0.00" timeLoss="9.64" rerouteNo="0" devices="tripinfo_-E2__0__motorbike.0 emissions_-E2__0__motorbike.0" vType="motorbike" speedFactor="0.96" vaporized="">
        <emissions CO_abs="2949.847183" CO2_abs="88418.860399" HC_abs="12.966922" PMx_abs="4.111459" NOx_abs="20.503337" fuel_abs="28204.818811" electricity_abs="0"/>
    </tripinfo>
    <tripinfo id="-E8__0__motorbike.3" depart="18.00" departLane="-E8_3" departPos="2.10" departPosLat="0.00" departSpeed="0.00" departDelay="0.14" arrival="51.00" arrivalLane="E9_2" arrivalPos="137.53" arrivalPosLat="0.00" arrivalSpeed="11.00" duration="33.00" routeLength="269.96" waitingTime="0.00" waitingCount="0" stopTime="0.00" timeLoss="7.34" rerouteNo="0" devices="tripinfo_-E8__0__motorbike.3 emissions_-E8__0__motorbike.3" vType="motorbike" speedFactor="1.02" vaporized="">
        <emissions CO_abs="2542.732872" CO2_abs="74077.301191" HC_abs="11.188234" PMx_abs="3.586796" NOx_abs="16.974228" fuel_abs="23630.038429" electricity_abs="0"/>
    </tripinfo>
    <tripinfo id="-E2__0__car.3" depart="16.00" departLane="-E2_1" departPos="4.60" departPosLat="0.00" departSpeed="0.00" departDelay="0.92" arrival="52.00" arrivalLane="E1_3" arrivalPos="153.25" arrivalPosLat="0.00" arrivalSpeed="10.27" duration="36.00" routeLength="318.38" waitingTime="0.00" waitingCount="0" stopTime="0.00" timeLoss="5.66" rerouteNo="0" devices="tripinfo_-E2__0__car.3 emissions_-E2__0__car.3" vType="car" speedFactor="0.97" vaporized="">
        <emissions CO_abs="1603.057463" CO2_abs="92619.189719" HC_abs="9.404327" PMx_abs="1.296070" NOx_abs="35.811406" fuel_abs="29541.754914" electricity_abs="0"/>
    </tripinfo>
    <tripinfo id="-E9__0__motorbike.1" depart="2.00" departLane="-E9_2" departPos="2.10" departPosLat="0.00" departSpeed="0.00" departDelay="0.52" arrival="57.00" arrivalLane="E8_2" arrivalPos="125.44" arrivalPosLat="0.00" arrivalSpeed="10.87" duration="55.00" routeLength="285.67" waitingTime="13.00" waitingCount="1" stopTime="0.00" timeLoss="28.70" rerouteNo="0" devices="tripinfo_-E9__0__motorbike.1 emissions_-E9__0__motorbike.1" vType="motorbike" speedFactor="1.02" vaporized="">
        <emissions CO_abs="6215.666254" CO2_abs="107894.803054" HC_abs="24.589688" PMx_abs="7.135183" NOx_abs="25.366211" fuel_abs="34418.035373" electricity_abs="0"/>
    </tripinfo>
    <tripinfo id="-E9__0__motorbike.5" depart="20.00" departLane="-E9_2" departPos="2.10" departPosLat="0.00" departSpeed="0.00" departDelay="0.89" arrival="57.00" arrivalLane="E7_2" arrivalPos="144.88" arrivalPosLat="0.00" arrivalSpeed="9.72" duration="37.00" routeLength="289.44" waitingTime="0.00" waitingCount="0" stopTime="0.00" timeLoss="6.32" rerouteNo="0" devices="tripinfo_-E9__0__motorbike.5 emissions_-E9__0__motorbike.5" vType="motorbike" speedFactor="0.88" vaporized="">
        <emissions CO_abs="2493.787709" CO2_abs="74045.685457" HC_abs="10.825649" PMx_abs="3.356279" NOx_abs="17.431842" fuel_abs="23619.891443" electricity_abs="0"/>
    </tripinfo>
    <tripinfo id="E0__0__car.5" depart="21.00" departLane="E0_1" departPos="4.60" departPosLat="0.00" departSpeed="0.00" departDelay="0.68" arrival="57.00" arrivalLane="E1_2" arrivalPos="153.25" arrivalPosLat="0.00" arrivalSpeed="9.56" duration="36.00" routeLength="295.33" waitingTime="0.00" waitingCount="0" stopTime="0.00" timeLoss="5.77" rerouteNo="0" devices="tripinfo_E0__0__car.5 emissions_E0__0__car.5" vType="car" speedFactor="0.91" vaporized="">
        <emissions CO_abs="1761.201401" CO2_abs="87874.448255" HC_abs="10.022541" PMx_abs="1.313017" NOx_abs="34.700494" fuel_abs="28028.419093" electricity_abs="0"/>
    </tripinfo>
    <tripinfo id="-E9__0__motorbike.0" depart="1.00" departLane="-E9_1" departPos="2.10" departPosLat="0.00" departSpeed="0.00" departDelay="0.98" arrival="58.00" arrivalLane="E8_3" arrivalPos="125.44" arrivalPosLat="0.00" arrivalSpeed="9.69" duration="57.00" routeLength="285.67" waitingTime="17.00" waitingCount="1" stopTime="0.00" timeLoss="27.40" rerouteNo="0" devices="tripinfo_-E9__0__motorbike.0 emissions_-E9__0__motorbike.0" vType="motorbike" speedFactor="0.89" vaporized="">
        <emissions CO_abs="6403.749537" CO2_abs="103223.630789" HC_abs="25.006574" PMx_abs="7.150075" NOx_abs="24.445854" fuel_abs="32928.047423" electricity_abs="0"/>
    </tripinfo>
    <tripinfo id="-E9__0__car.0" depart="6.00" departLane="-E9_1" departPos="4.60" departPosLat="0.00" departSpeed="0.00" departDelay="0.59" arrival="60.00" arrivalLane="E8_3" arrivalPos="125.44" arrivalPosLat="0.00" arrivalSpeed="10.70" duration="54.00" routeLength="283.17" waitingTime="12.00" waitingCount="1" stopTime="0.00" timeLoss="27.85" rerouteNo="0" devices="tripinfo_-E9__0__car.0 emissions_-E9__0__car.0" vType="car" speedFactor="1.01" vaporized="">
        <emissions CO_abs="4666.246082" CO2_abs="144003.406559" HC_abs="24.560901" PMx_abs="2.589592" NOx_abs="59.604078" fuel_abs="45931.943946" electricity_abs="0"/>
    </tripinfo>
    <tripinfo id="-E4__0__car.2" depart="13.00" departLane="-E4_1" departPos="4.60" departPosLat="0.00" departSpeed="0.00" departDelay="0.59" arrival="60.00" arrivalLane="E5_2" arrivalPos="132.02" arrivalPosLat="0.00" arrivalSpeed="9.65" duration="47.00" routeLength="296.51" waitingTime="6.00" waitingCount="1" stopTime="0.00" timeLoss="15.59" rerouteNo="0" devices="tripinfo_-E4__0__car.2 emissions_-E4__0__car.2" vType="car" speedFactor="0.88" vaporized="">
        <emissions CO_abs="3289.886645" CO2_abs="118827.208928" HC_abs="17.688275" PMx_abs="1.919078" NOx_abs="47.887209" fuel_abs="37901.517530" electricity_abs="0"/>
    </tripinfo>
    <tripinfo id="-E9__0__motorbike.7" depart="24.00" departLane="-E9_1" departPos="2.10" departPosLat="0.00" departSpeed="0.00" departDelay="0.62" arrival="60.00" arrivalLane="E7_2" arrivalPos="144.88" arrivalPosLat="0.00" arrivalSpeed="10.02" duration="36.00" routeLength="289.44" waitingTime="0.00" waitingCount="0" stopTime="0.00" timeLoss="6.96" rerouteNo="0" devices="tripinfo_-E9__0__motorbike.7 emissions_-E9__0__motorbike.7" vType="motorbike" speedFactor="0.92" vaporized="">
        <emissions CO_abs="2374.426991" CO2_abs="71650.451590" HC_abs="10.394675" PMx_abs="3.263171" NOx_abs="16.747785" fuel_abs="22855.836909" electricity_abs="0"/>
    </tripinfo>
    <tripinfo id="-E9__0__car.1" depart="10.00" departLane="-E9_3" departPos="4.60" departPosLat="0.00" departSpeed="0.00" departDelay="0.41" arrival="62.00" arrivalLane="E8_3" arrivalPos="125.44" arrivalPosLat="0.00" arrivalSpeed="9.62" duration="52.00" routeLength="283.17" waitingTime="11.00" waitingCount="1" stopTime="0.00" timeLoss="23.72" rerouteNo="0" devices="tripinfo_-E9__0__car.1 emissions_-E9__0__car.1" vType="car" speedFactor="0.93" vaporized="">
        <emissions CO_abs="4561.803770" CO2_abs="137408.827792" HC_abs="23.927712" PMx_abs="2.458796" NOx_abs="56.839425" fuel_abs="43828.587618" electricity_abs="0"/>
    </tripinfo>
    <tripinfo id="E0__0__motorbike.3" depart="27.00" departLane="E0_1" departPos="2.10" departPosLat="0.00" departSpeed="0.00" departDelay="0.30" arrival="62.00" arrivalLane="E1_1" arrivalPos="153.25" arrivalPosLat="0.00" arrivalSpeed="10.91" duration="35.00" routeLength="297.83" waitingTime="0.00" waitingCount="0" stopTime="0.00" timeLoss="6.77" rerouteNo="0" devices="tripinfo_E0__0__motorbike.3 emissions_E0__0__motorbike.3" vType="motorbike" speedFactor="1.10" vaporized="">
        <emissions CO_abs="2598.203481" CO2_abs="78411.326786" HC_abs="11.486137" PMx_abs="3.673858" NOx_abs="18.079973" fuel_abs="25012.501912" electricity_abs="0"/>
    </tripinfo>
    <tripinfo id="-E9__0__motorbike.2" depart="10.00" departLane="-E9_2" departPos="2.10" departPosLat="0.00" departSpeed="0.00" departDelay="0.41" arrival="63.00" arrivalLane="E8_3" arrivalPos="125.44" arrivalPosLat="0.00" arrivalSpeed="11.05" duration="53.00" routeLength="285.67" waitingTime="11.00" waitingCount="1" stopTime="0.00" timeLoss="27.00" rerouteNo="0" devices="tripinfo_-E9__0__motorbike.2 emissions_-E9__0__motorbike.2" vType="motorbike" speedFactor="1.13" vaporized="">
        <emissions CO_abs="6259.140297" CO2_abs="119030.837351" HC_abs="25.206343" PMx_abs="7.472472" NOx_abs="27.684861" fuel_abs="37970.305021" electricity_abs="0"/>
    </tripinfo>
    <tripinfo id="-E9__0__motorbike.9" depart="31.00" departLane="-E9_1" departPos="2.10" departPosLat="0.00" departSpeed="0.00" departDelay="0.85" arrival="64.00" arrivalLane="E8_3" arrivalPos="125.44" arrivalPosLat="1.15" arrivalSpeed="10.50" duration="33.00" routeLength="285.67" waitingTime="0.00" waitingCount="0" stopTime="0.00" timeLoss="6.64" rerouteNo="0" devices="tripinfo_-E9__0__motorbike.9 emissions_-E9__0__motorbike.9" vType="motorbike" speedFactor="1.12" vaporized="">
        <emissions CO_abs="2431.732691" CO2_abs="79862.936712" HC_abs="10.876502" PMx_abs="3.462724" NOx_abs="18.656758" fuel_abs="25475.450831" electricity_abs="0"/>
    </tripinfo>
    <tripinfo id="E0__0__motorbike.4" depart="29.00" departLane="E0_2" departPos="2.10" departPosLat="0.00" departSpeed="0.00" departDelay="0.21" arrival="66.00" arrivalLane="E1_2" arrivalPos="153.25" arrivalPosLat="0.00" arrivalSpeed="9.75" duration="37.00" routeLength="297.83" waitingTime="0.00" waitingCount="0" stopTime="0.00" timeLoss="7.18" rerouteNo="0" devices="tripinfo_E0__0__motorbike.4 emissions_E0__0__motorbike.4" vType="motorbike" speedFactor="0.93" vaporized="">
        <emissions CO_abs="2549.108723" CO2_abs="77456.470167" HC_abs="11.170758" PMx_abs="3.505258" NOx_abs="18.124129" fuel_abs="24707.891235" electricity_abs="0"/>
    </tripinfo>
    <tripinfo id="-E9__0__motorbike.3" depart="17.00" departLane="-E9_2" departPos="2.10" departPosLat="0.00" departSpeed="0.00" departDelay="0.39" arrival="67.00" arrivalLane="E8_2" arrivalPos="125.44" arrivalPosLat="1.20" arrivalSpeed="8.43" duration="50.00" routeLength="285.67" waitingTime="5.00" waitingCount="1" stopTime="0.00" timeLoss="17.52" rerouteNo="0" devices="tripinfo_-E9__0__motorbike.3 emissions_-E9__0__motorbike.3" vType="motorbike" speedFactor="0.80" vaporized="">
        <emissions CO_abs="4455.103163" CO2_abs="82293.949043" HC_abs="17.649646" PMx_abs="5.078873" NOx_abs="19.609013" fuel_abs="26251.407052" electricity_abs="0"/>
    </tripinfo>
    <tripinfo id="-E9__0__motorbike.8" depart="26.00" departLane="-E9_1" departPos="2.10" departPosLat="0.00" departSpeed="0.00" departDelay="0.15" arrival="67.00" arrivalLane="E8_2" arrivalPos="125.44" arrivalPosLat="0.00" arrivalSpeed="9.45" duration="41.00" routeLength="285.67" waitingTime="0.00" waitingCount="0" stopTime="0.00" timeLoss="12.04" rerouteNo="0" devices="tripinfo_-E9__0__motorbike.8 emissions_-E9__0__motorbike.8" vType="motorbike" speedFactor="0.91" vaporized="">
        <emissions CO_abs="3600.183982" CO2_abs="92497.288773" HC_abs="15.290209" PMx_abs="4.727260" NOx_abs="21.476954" fuel_abs="29505.949707" electricity_abs="0"/>
    </tripinfo>
    <tripinfo id="-E9__0__car.2" depart="34.00" departLane="-E9_2" departPos="4.60" departPosLat="0.00" departSpeed="0.00" departDelay="0.84" arrival="68.00" arrivalLane="E7_1" arrivalPos="144.88" arrivalPosLat="0.00" arrivalSpeed="10.67" duration="34.00" routeLength="286.94" waitingTime="0.00" waitingCount="0" stopTime="0.00" timeLoss="7.50" rerouteNo="0" devices="tripinfo_-E9__0__car.2 emissions_-E9__0__car.2" vType="car" speedFactor="1.03" vaporized="">
        <emissions CO_abs="1816.778565" CO2_abs="93116.089172" HC_abs="10.406739" PMx_abs="1.441664" NOx_abs="36.999109" fuel_abs="29700.213214" electricity_abs="0"/>
    </tripinfo>
    <tripinfo id="-E1__0__car.0" depart="1.00" departLane="-E1_1" departPos="4.60" departPosLat="0.00" departSpeed="0.00" departDelay="0.16" arrival="76.00" arrivalLane="-E0_3" arrivalPos="137.59" arrivalPosLat="0.00" arrivalSpeed="10.83" duration="75.00" routeLength="311.02" waitingTime="36.00" waitingCount="1" stopTime="0.00" timeLoss="46.75" rerouteNo="0" devices="tripinfo_-E1__0__car.0 emissions_-E1__0__car.0" vType="car" speedFactor="1.03" vaporized="">
        <emissions CO_abs="8247.340074" CO2_abs="206276.775332" HC_abs="42.328041" PMx_abs="4.085161" NOx_abs="87.641424" fuel_abs="65795.502463" electricity_abs="0"/>
    </tripinfo>
    <tripinfo id="-E7__0__car.0" depart="9.00" departLane="-E7_2" departPos="4.60" departPosLat="0.00" departSpeed="0.00" departDelay="0.54" arrival="76.00" arrivalLane="E9_3" arrivalPos="137.53" arrivalPosLat="0.00" arrivalSpeed="10.87" duration="67.00" routeLength="302.58" waitingTime="28.00" waitingCount="1" stopTime="0.00" timeLoss="39.37" rerouteNo="0" devices="tripinfo_-E7__0__car.0 emissions_-E7__0__car.0" vType="car" speedFactor="1.17" vaporized="">
        <emissions CO_abs="7022.543487" CO2_abs="184519.250187" HC_abs="36.241952" PMx_abs="3.573822" NOx_abs="77.859471" fuel_abs="58855.437592" electricity_abs="0"/>
    </tripinfo>
    <tripinfo id="-E7__0__motorbike.5" depart="40.00" departLane="-E7_1" departPos="2.10" departPosLat="0.00" departSpeed="0.00" departDelay="0.18" arrival="77.00" arrivalLane="E8_2" arrivalPos="125.44" arrivalPosLat="0.00" arrivalSpeed="8.57" duration="37.00" routeLength="295.98" waitingTime="0.00" waitingCount="0" stopTime="0.00" timeLoss="4.84" rerouteNo="0" devices="tripinfo_-E7__0__motorbike.5 emissions_-E7__0__motorbike.5" vType="motorbike" speedFactor="0.83" vaporized="">
        <emissions CO_abs="1995.101032" CO2_abs="61368.931661" HC_abs="8.657473" PMx_abs="2.651976" NOx_abs="14.614608" fuel_abs="19576.088990" electricity_abs="0"/>
    </tripinfo>
    <tripinfo id="-E1__0__car.1" depart="5.00" departLane="-E1_1" departPos="4.60" departPosLat="0.00" departSpeed="0.00" departDelay="0.84" arrival="78.00" arrivalLane="-E0_3" arrivalPos="137.59" arrivalPosLat="0.00" arrivalSpeed="10.59" duration="73.00" routeLength="311.02" waitingTime="34.00" waitingCount="1" stopTime="0.00" timeLoss="44.68" rerouteNo="0" devices="tripinfo_-E1__0__car.1 emissions_-E1__0__car.1" vType="car" speedFactor="1.14" vaporized="">
        <emissions CO_abs="7909.360554" CO2_abs="199307.993313" HC_abs="40.630081" PMx_abs="3.955437" NOx_abs="84.732906" fuel_abs="63572.645827" electricity_abs="0"/>
    </tripinfo>
    <tripinfo id="-E2__0__car.2" depart="10.00" departLane="-E2_2" departPos="4.60" departPosLat="0.00" departSpeed="0.00" departDelay="0.69" arrival="78.00" arrivalLane="E4_3" arrivalPos="141.64" arrivalPosLat="0.00" arrivalSpeed="9.63" duration="68.00" routeLength="451.73" waitingTime="9.00" waitingCount="1" stopTime="0.00" timeLoss="21.26" rerouteNo="0" devices="tripinfo_-E2__0__car.2 emissions_-E2__0__car.2" vType="car" speedFactor="0.89" vaporized="">
        <emissions CO_abs="4668.277584" CO2_abs="172025.200888" HC_abs="25.169048" PMx_abs="2.715598" NOx_abs="68.811986" fuel_abs="54869.744507" electricity_abs="0"/>
    </tripinfo>
    <tripinfo id="-E7__0__motorbike.1" depart="17.00" departLane="-E7_1" departPos="2.10" departPosLat="0.00" departSpeed="0.00" departDelay="0.74" arrival="79.00" arrivalLane="E9_3" arrivalPos="137.53" arrivalPosLat="0.00" arrivalSpeed="9.36" duration="62.00" routeLength="305.08" waitingTime="19.00" waitingCount="1" stopTime="0.00" timeLoss="30.67" rerouteNo="0" devices="tripinfo_-E7__0__motorbike.1 emissions_-E7__0__motorbike.1" vType="motorbike" speedFactor="0.88" vaporized="">
        <emissions CO_abs="6804.873229" CO2_abs="105611.527313" HC_abs="26.434883" PMx_abs="7.523713" NOx_abs="25.034808" fuel_abs="33689.841836" electricity_abs="0"/>
    </tripinfo>
    <tripinfo id="E0__0__car.0" depart="4.00" departLane="E0_2" departPos="4.60" departPosLat="0.00" departSpeed="0.00" departDelay="0.42" arrival="80.00" arrivalLane="E4_2" arrivalPos="141.64" arrivalPosLat="0.20" arrivalSpeed="9.22" duration="76.00" routeLength="460.83" waitingTime="15.00" waitingCount="1" stopTime="0.00" timeLoss="27.36" rerouteNo="0" devices="tripinfo_E0__0__car.0 emissions_E0__0__car.0" vType="car" speedFactor="0.86" vaporized="">
        <emissions CO_abs="5576.249818" CO2_abs="183843.786341" HC_abs="29.586631" PMx_abs="3.074984" NOx_abs="74.753986" fuel_abs="58639.609171" electricity_abs="0"/>
    </tripinfo>
    <tripinfo id="-E1__0__motorbike.0" depart="6.00" departLane="-E1_3" departPos="2.10" departPosLat="0.00" departSpeed="0.00" departDelay="0.32" arrival="80.00" arrivalLane="-E0_3" arrivalPos="137.59" arrivalPosLat="0.00" arrivalSpeed="9.93" duration="74.00" routeLength="313.52" waitingTime="32.00" waitingCount="1" stopTime="0.00" timeLoss="44.13" rerouteNo="0" devices="tripinfo_-E1__0__motorbike.0 emissions_-E1__0__motorbike.0" vType="motorbike" speedFactor="0.96" vaporized="">
        <emissions CO_abs="9208.131019" CO2_abs="132306.057244" HC_abs="35.456812" PMx_abs="10.020805" NOx_abs="31.364080" fuel_abs="42205.468566" electricity_abs="0"/>
    </tripinfo>
    <tripinfo id="E0__0__motorbike.0" depart="11.00" departLane="E0_3" departPos="2.10" departPosLat="0.00" departSpeed="0.00" departDelay="0.12" arrival="80.00" arrivalLane="E5_2" arrivalPos="132.02" arrivalPosLat="0.00" arrivalSpeed="10.94" duration="69.00" routeLength="438.44" waitingTime="13.00" waitingCount="1" stopTime="0.00" timeLoss="28.57" rerouteNo="0" devices="tripinfo_E0__0__motorbike.0 emissions_E0__0__motorbike.0" vType="motorbike" speedFactor="1.10" vaporized="">
        <emissions CO_abs="6810.316839" CO2_abs="143786.277882" HC_abs="27.900468" PMx_abs="8.380495" NOx_abs="33.456476" fuel_abs="45866.979233" electricity_abs="0"/>
    </tripinfo>
    <tripinfo id="-E1__0__motorbike.1" depart="8.00" departLane="-E1_3" departPos="2.10" departPosLat="0.00" departSpeed="0.00" departDelay="0.29" arrival="81.00" arrivalLane="-E0_3" arrivalPos="137.59" arrivalPosLat="-1.15" arrivalSpeed="10.41" duration="73.00" routeLength="313.52" waitingTime="32.00" waitingCount="1" stopTime="0.00" timeLoss="44.78" rerouteNo="0" devices="tripinfo_-E1__0__motorbike.1 emissions_-E1__0__motorbike.1" vType="motorbike" speedFactor="1.18" vaporized="">
        <emissions CO_abs="9241.242689" CO2_abs="132558.472528" HC_abs="35.548921" PMx_abs="10.020970" NOx_abs="31.509851" fuel_abs="42285.961213" electricity_abs="0"/>
    </tripinfo>
    <tripinfo id="-E7__0__motorbike.2" depart="25.00" departLane="-E7_1" departPos="2.10" departPosLat="0.00" departSpeed="0.00" departDelay="0.31" arrival="81.00" arrivalLane="E9_3" arrivalPos="137.53" arrivalPosLat="0.00" arrivalSpeed="10.98" duration="56.00" routeLength="305.08" waitingTime="16.00" waitingCount="1" stopTime="0.00" timeLoss="27.63" rerouteNo="0" devices="tripinfo_-E7__0__motorbike.2 emissions_-E7__0__motorbike.2" vType="motorbike" speedFactor="1.09" vaporized="">
        <emissions CO_abs="6474.810239" CO2_abs="121992.720169" HC_abs="25.970278" PMx_abs="7.639279" NOx_abs="28.567233" fuel_abs="38915.102628" electricity_abs="0"/>
    </tripinfo>
    <tripinfo id="-E2__0__motorbike.1" depart="26.00" departLane="-E2_3" departPos="2.10" departPosLat="0.00" departSpeed="0.00" departDelay="0.78" arrival="81.00" arrivalLane="E5_1" arrivalPos="132.02" arrivalPosLat="0.00" arrivalSpeed="9.44" duration="55.00" routeLength="429.34" waitingTime="0.00" waitingCount="0" stopTime="0.00" timeLoss="7.79" rerouteNo="0" devices="tripinfo_-E2__0__motorbike.1 emissions_-E2__0__motorbike.1" vType="motorbike" speedFactor="0.86" vaporized="">
        <emissions CO_abs="3171.105843" CO2_abs="98574.902412" HC_abs="13.939391" PMx_abs="4.374942" NOx_abs="23.119123" fuel_abs="31444.470851" electricity_abs="0"/>
    </tripinfo>
    <tripinfo id="E0__0__car.1" depart="7.00" departLane="E0_3" departPos="4.60" departPosLat="0.00" departSpeed="0.00" departDelay="0.46" arrival="82.00" arrivalLane="E4_3" arrivalPos="141.64" arrivalPosLat="0.00" arrivalSpeed="10.97" duration="75.00" routeLength="460.83" waitingTime="13.00" waitingCount="1" stopTime="0.00" timeLoss="32.49" rerouteNo="0" devices="tripinfo_E0__0__car.1 emissions_E0__0__car.1" vType="car" speedFactor="1.00" vaporized="">
        <emissions CO_abs="5685.193990" CO2_abs="193194.728522" HC_abs="30.330329" PMx_abs="3.372890" NOx_abs="79.365080" fuel_abs="61621.962952" electricity_abs="0"/>
    </tripinfo>
    <tripinfo id="-E1__0__car.2" depart="9.00" departLane="-E1_1" departPos="4.60" departPosLat="0.00" departSpeed="0.00" departDelay="1.05" arrival="82.00" arrivalLane="-E0_3" arrivalPos="137.59" arrivalPosLat="0.70" arrivalSpeed="10.75" duration="73.00" routeLength="311.02" waitingTime="30.00" waitingCount="1" stopTime="0.00" timeLoss="44.56" rerouteNo="0" devices="tripinfo_-E1__0__car.2 emissions_-E1__0__car.2" vType="car" speedFactor="1.02" vaporized="">
        <emissions CO_abs="7807.362361" CO2_abs="203035.134856" HC_abs="40.271164" PMx_abs="4.098774" NOx_abs="86.960597" fuel_abs="64761.225586" electricity_abs="0"/>
    </tripinfo>
    <tripinfo id="E0__0__car.2" depart="9.00" departLane="E0_1" departPos="4.60" departPosLat="0.00" departSpeed="0.00" departDelay="2.20" arrival="83.00" arrivalLane="E4_3" arrivalPos="141.64" arrivalPosLat="0.00" arrivalSpeed="10.77" duration="74.00" routeLength="460.83" waitingTime="13.00" waitingCount="1" stopTime="0.00" timeLoss="32.28" rerouteNo="0" devices="tripinfo_E0__0__car.2 emissions_E0__0__car.2" vType="car" speedFactor="1.07" vaporized="">
        <emissions CO_abs="5407.606332" CO2_abs="186219.927362" HC_abs="28.915825" PMx_abs="3.293582" NOx_abs="76.808449" fuel_abs="59397.162992" electricity_abs="0"/>
    </tripinfo>
    <tripinfo id="-E7__0__car.1" depart="29.00" departLane="-E7_1" departPos="4.60" departPosLat="0.00" departSpeed="0.00" departDelay="0.46" arrival="83.00" arrivalLane="E9_3" arrivalPos="137.53" arrivalPosLat="0.00" arrivalSpeed="10.22" duration="54.00" routeLength="302.58" waitingTime="12.00" waitingCount="1" stopTime="0.00" timeLoss="24.28" rerouteNo="0" devices="tripinfo_-E7__0__car.1 emissions_-E7__0__car.1" vType="car" speedFactor="0.95" vaporized="">
        <emissions CO_abs="4540.775932" CO2_abs="142228.011059" HC_abs="23.941650" PMx_abs="2.516743" NOx_abs="58.638771" fuel_abs="45365.658444" electricity_abs="0"/>
    </tripinfo>
    <tripinfo id="E0__0__motorbike.8" depart="48.00" departLane="E0_2" departPos="2.10" departPosLat="0.00" departSpeed="0.00" departDelay="0.08" arrival="83.00" arrivalLane="E1_1" arrivalPos="153.25" arrivalPosLat="0.00" arrivalSpeed="10.82" duration="35.00" routeLength="297.83" waitingTime="0.00" waitingCount="0" stopTime="0.00" timeLoss="6.81" rerouteNo="0" devices="tripinfo_E0__0__motorbike.8 emissions_E0__0__motorbike.8" vType="motorbike" speedFactor="1.04" vaporized="">
        <emissions CO_abs="2675.745266" CO2_abs="83830.126005" HC_abs="11.905825" PMx_abs="3.810827" NOx_abs="19.406984" fuel_abs="26741.003968" electricity_abs="0"/>
    </tripinfo>
    <tripinfo id="-E1__0__motorbike.3" depart="16.00" departLane="-E1_2" departPos="2.10" departPosLat="0.00" departSpeed="0.00" departDelay="0.32" arrival="84.00" arrivalLane="-E0_3" arrivalPos="137.59" arrivalPosLat="0.00" arrivalSpeed="10.20" duration="68.00" routeLength="313.52" waitingTime="26.00" waitingCount="1" stopTime="0.00" timeLoss="38.35" rerouteNo="0" devices="tripinfo_-E1__0__motorbike.3 emissions_-E1__0__motorbike.3" vType="motorbike" speedFactor="0.96" vaporized="">
        <emissions CO_abs="8054.709454" CO2_abs="115788.926133" HC_abs="31.023945" PMx_abs="8.777786" NOx_abs="27.409438" fuel_abs="36936.546989" electricity_abs="0"/>
    </tripinfo>
    <tripinfo id="-E7__0__motorbike.3" depart="31.00" departLane="-E7_3" departPos="2.10" departPosLat="0.00" departSpeed="0.00" departDelay="0.49" arrival="84.00" arrivalLane="E9_3" arrivalPos="137.53" arrivalPosLat="0.00" arrivalSpeed="10.93" duration="53.00" routeLength="305.08" waitingTime="10.00" waitingCount="1" stopTime="0.00" timeLoss="24.95" rerouteNo="0" devices="tripinfo_-E7__0__motorbike.3 emissions_-E7__0__motorbike.3" vType="motorbike" speedFactor="1.00" vaporized="">
        <emissions CO_abs="5751.649684" CO2_abs="113594.781788" HC_abs="23.231316" PMx_abs="6.869032" NOx_abs="26.605496" fuel_abs="36236.137466" electricity_abs="0"/>
    </tripinfo>
    <tripinfo id="E0__0__car.4" depart="13.00" departLane="E0_1" departPos="4.60" departPosLat="0.00" departSpeed="0.00" departDelay="0.68" arrival="85.00" arrivalLane="E4_3" arrivalPos="141.64" arrivalPosLat="0.00" arrivalSpeed="11.04" duration="72.00" routeLength="460.83" waitingTime="12.00" waitingCount="1" stopTime="0.00" timeLoss="29.83" rerouteNo="0" devices="tripinfo_E0__0__car.4 emissions_E0__0__car.4" vType="car" speedFactor="1.13" vaporized="">
        <emissions CO_abs="5440.061192" CO2_abs="194926.304875" HC_abs="29.252258" PMx_abs="3.341131" NOx_abs="79.549395" fuel_abs="62174.165242" electricity_abs="0"/>
    </tripinfo>
    <tripinfo id="-E1__0__motorbike.2" depart="11.00" departLane="-E1_2" departPos="2.10" departPosLat="0.00" departSpeed="0.00" departDelay="0.18" arrival="86.00" arrivalLane="-E0_3" arrivalPos="137.59" arrivalPosLat="0.00" arrivalSpeed="9.51" duration="75.00" routeLength="313.52" waitingTime="27.00" waitingCount="2" stopTime="0.00" timeLoss="43.78" rerouteNo="0" devices="tripinfo_-E1__0__motorbike.2 emissions_-E1__0__motorbike.2" vType="motorbike" speedFactor="0.91" vaporized="">
        <emissions CO_abs="9224.336903" CO2_abs="137791.791308" HC_abs="35.542327" PMx_abs="9.994496" NOx_abs="32.947837" fuel_abs="43955.323958" electricity_abs="0"/>
    </tripinfo>
    <tripinfo id="E0__0__car.3" depart="16.00" departLane="E0_1" departPos="4.60" departPosLat="0.00" departSpeed="0.00" departDelay="4.97" arrival="87.00" arrivalLane="E4_3" arrivalPos="141.64" arrivalPosLat="0.00" arrivalSpeed="10.79" duration="71.00" routeLength="460.83" waitingTime="11.00" waitingCount="1" stopTime="0.00" timeLoss="28.08" rerouteNo="0" devices="tripinfo_E0__0__car.3 emissions_E0__0__car.3" vType="car" speedFactor="0.99" vaporized="">