<?xml version="1.0" encoding="UTF-8"?>

<!-- generated on 2026-06-21 12:50:41 by Eclipse SUMO GUI Version 1.18.0
<configuration xmlns:xsi="http://www.w3.org/2001/XMLSchema-instance" xsi:noNamespaceSchemaLocation="http://sumo.dlr.de/xsd/sumoConfiguration.xsd">

    <input>
        <net-file value="Scenario/test/env/test.net.xml"/>
        <route-files value="Scenario/test/env/../routes/vehicle.rou.xml"/>
        <additional-files value="Scenario/test/env/../add/tls.add.xml,Scenario/test/env/ ../add/e2.add.xml"/>
    </input>

    <output>
        <tripinfo-output value="/home/hoanganh/Project/TSC-CoLight/deploy_test_large.tripinfo.xml"/>
        <tripinfo-output.write-unfinished value="true"/>
    </output>

    <time>
        <begin value="0"/>
        <end value="500"/>
        <step-length value="1.0"/>
    </time>

    <processing>
        <lateral-resolution value="0.2"/>
        <time-to-teleport value="-1"/>
        <waiting-time-memory value="10000"/>
        <max-depart-delay value="100000"/>
    </processing>

    <report>
        <no-warnings value="true"/>
        <no-step-log value="true"/>
    </report>

    <emissions>
        <device.emissions.probability value="1.0"/>
    </emissions>

    <traci_server>
        <remote-port value="43685"/>
    </traci_server>

    <random_number>
        <random value="true"/>
    </random_number>

    <gui_only>
        <quit-on-end value="true"/>
        <start value="true"/>
    </gui_only>

</configuration>
-->

<tripinfos xmlns:xsi="http://www.w3.org/2001/XMLSchema-instance" xsi:noNamespaceSchemaLocation="http://sumo.dlr.de/xsd/tripinfo_file.xsd">
    <tripinfo id="-E1__0__car.1" depart="5.00" departLane="-E1_1" departPos="4.60" departPosLat="0.00" departSpeed="0.00" departDelay="0.46" arrival="33.00" arrivalLane="E2_1" arrivalPos="100.88" arrivalPosLat="0.00" arrivalSpeed="10.47" duration="28.00" routeLength="212.32" waitingTime="0.00" waitingCount="0" stopTime="0.00" timeLoss="7.49" rerouteNo="0" devices="tripinfo_-E1__0__car.1 emissions_-E1__0__car.1" vType="car" speedFactor="1.13" vaporized="">
        <emissions CO_abs="1699.607029" CO2_abs="81938.313451" HC_abs="9.616941" PMx_abs="1.291662" NOx_abs="32.733255" fuel_abs="26134.999381" electricity_abs="0"/>
    </tripinfo>
    <tripinfo id="-E4__0__car.0" depart="1.00" departLane="-E4_3" departPos="4.60" departPosLat="0.00" departSpeed="0.00" departDelay="0.71" arrival="34.00" arrivalLane="E5_2" arrivalPos="146.08" arrivalPosLat="0.00" arrivalSpeed="9.33" duration="33.00" routeLength="251.16" waitingTime="0.00" waitingCount="0" stopTime="0.00" timeLoss="7.08" rerouteNo="0" devices="tripinfo_-E4__0__car.0 emissions_-E4__0__car.0" vType="car" speedFactor="0.90" vaporized="">
        <emissions CO_abs="1879.514793" CO2_abs="87486.623678" HC_abs="10.546803" PMx_abs="1.302119" NOx_abs="34.567078" fuel_abs="27904.800397" electricity_abs="0"/>
    </tripinfo>
    <tripinfo id="-E1__0__motorbike.2" depart="7.00" departLane="-E1_1" departPos="2.10" departPosLat="0.00" departSpeed="0.00" departDelay="1.01" arrival="35.00" arrivalLane="E2_1" arrivalPos="100.88" arrivalPosLat="0.00" arrivalSpeed="10.63" duration="28.00" routeLength="214.82" waitingTime="1.00" waitingCount="1" stopTime="0.00" timeLoss="7.53" rerouteNo="0" devices="tripinfo_-E1__0__motorbike.2 emissions_-E1__0__motorbike.2" vType="motorbike" speedFactor="1.18" vaporized="">
        <emissions CO_abs="2473.685857" CO2_abs="69870.352146" HC_abs="10.722623" PMx_abs="3.362051" NOx_abs="16.227231" fuel_abs="22288.040689" electricity_abs="0"/>
    </tripinfo>
    <tripinfo id="-E5__0__motorbike.0" depart="1.00" departLane="-E5_3" departPos="2.10" departPosLat="0.00" departSpeed="0.00" departDelay="0.98" arrival="37.00" arrivalLane="E6_1" arrivalPos="109.06" arrivalPosLat="0.00" arrivalSpeed="10.47" duration="36.00" routeLength="262.07" waitingTime="0.00" waitingCount="0" stopTime="0.00" timeLoss="11.19" rerouteNo="0" devices="tripinfo_-E5__0__motorbike.0 emissions_-E5__0__motorbike.0" vType="motorbike" speedFactor="1.04" vaporized="">
        <emissions CO_abs="3175.579446" CO2_abs="87625.390197" HC_abs="13.764699" PMx_abs="4.352670" NOx_abs="20.154669" fuel_abs="27951.816008" electricity_abs="0"/>
    </tripinfo>
    <tripinfo id="E0__0__motorbike.0" depart="4.00" departLane="E0_2" departPos="2.10" departPosLat="0.00" departSpeed="0.00" departDelay="0.42" arrival="37.00" arrivalLane="E2_2" arrivalPos="100.88" arrivalPosLat="0.00" arrivalSpeed="10.66" duration="33.00" routeLength="202.78" waitingTime="2.00" waitingCount="1" stopTime="0.00" timeLoss="14.62" rerouteNo="0" devices="tripinfo_E0__0__motorbike.0 emissions_E0__0__motorbike.0" vType="motorbike" speedFactor="1.01" vaporized="">
        <emissions CO_abs="3907.592971" CO2_abs="84584.182261" HC_abs="16.091496" PMx_abs="4.867034" NOx_abs="19.602778" fuel_abs="26981.874648" electricity_abs="0"/>
    </tripinfo>
    <tripinfo id="-E4__0__motorbike.0" depart="5.00" departLane="-E4_1" departPos="2.10" departPosLat="0.00" departSpeed="0.00" departDelay="0.16" arrival="37.00" arrivalLane="E5_2" arrivalPos="146.08" arrivalPosLat="0.00" arrivalSpeed="10.63" duration="32.00" routeLength="253.66" waitingTime="0.00" waitingCount="0" stopTime="0.00" timeLoss="8.24" rerouteNo="0" devices="tripinfo_-E4__0__motorbike.0 emissions_-E4__0__motorbike.0" vType="motorbike" speedFactor="1.00" vaporized="">
        <emissions CO_abs="2754.470473" CO2_abs="78209.013872" HC_abs="12.019260" PMx_abs="3.818174" NOx_abs="17.989984" fuel_abs="24948.032712" electricity_abs="0"/>
    </tripinfo>
    <tripinfo id="-E1__0__car.2" depart="10.00" departLane="-E1_3" departPos="4.60" departPosLat="0.00" departSpeed="0.00" departDelay="0.69" arrival="38.00" arrivalLane="E2_1" arrivalPos="100.88" arrivalPosLat="0.00" arrivalSpeed="10.62" duration="28.00" routeLength="212.32" waitingTime="0.00" waitingCount="0" stopTime="0.00" timeLoss="7.88" rerouteNo="0" devices="tripinfo_-E1__0__car.2 emissions_-E1__0__car.2" vType="car" speedFactor="1.10" vaporized="">
        <emissions CO_abs="1681.091589" CO2_abs="80800.464197" HC_abs="9.511344" PMx_abs="1.296145" NOx_abs="32.446712" fuel_abs="25772.045518" electricity_abs="0"/>
    </tripinfo>
    <tripinfo id="E0__0__car.0" depart="6.00" departLane="E0_1" departPos="4.60" departPosLat="0.00" departSpeed="0.00" departDelay="0.32" arrival="39.00" arrivalLane="E2_2" arrivalPos="100.88" arrivalPosLat="0.00" arrivalSpeed="10.69" duration="33.00" routeLength="200.28" waitingTime="0.00" waitingCount="0" stopTime="0.00" timeLoss="14.96" rerouteNo="0" devices="tripinfo_E0__0__car.0 emissions_E0__0__car.0" vType="car" speedFactor="1.03" vaporized="">
        <emissions CO_abs="2398.007136" CO2_abs="90811.642749" HC_abs="13.007734" PMx_abs="1.556790" NOx_abs="37.306366" fuel_abs="28965.394539" electricity_abs="0"/>
    </tripinfo>
    <tripinfo id="-E5__0__car.1" depart="6.00" departLane="-E5_2" departPos="4.60" departPosLat="0.00" departSpeed="0.00" departDelay="0.59" arrival="40.00" arrivalLane="E6_1" arrivalPos="109.06" arrivalPosLat="0.00" arrivalSpeed="10.29" duration="34.00" routeLength="259.57" waitingTime="0.00" waitingCount="0" stopTime="0.00" timeLoss="8.97" rerouteNo="0" devices="tripinfo_-E5__0__car.1 emissions_-E5__0__car.1" vType="car" speedFactor="0.97" vaporized="">
        <emissions CO_abs="2106.070028" CO2_abs="100069.173018" HC_abs="11.891035" PMx_abs="1.627675" NOx_abs="40.417866" fuel_abs="31917.959999" electricity_abs="0"/>
    </tripinfo>
    <tripinfo id="E0__0__motorbike.1" depart="8.00" departLane="E0_1" departPos="2.10" departPosLat="0.00" departSpeed="0.00" departDelay="1.46" arrival="41.00" arrivalLane="E2_2" arrivalPos="100.88" arrivalPosLat="0.00" arrivalSpeed="9.78" duration="33.00" routeLength="202.78" waitingTime="1.00" waitingCount="1" stopTime="0.00" timeLoss="13.08" rerouteNo="0" devices="tripinfo_E0__0__motorbike.1 emissions_E0__0__motorbike.1" vType="motorbike" speedFactor="0.92" vaporized="">
        <emissions CO_abs="3447.336500" CO2_abs="76853.445881" HC_abs="14.214132" PMx_abs="4.284363" NOx_abs="17.919973" fuel_abs="24515.795662" electricity_abs="0"/>
    </tripinfo>
    <tripinfo id="E0__0__motorbike.2" depart="7.00" departLane="E0_3" departPos="2.10" departPosLat="0.00" departSpeed="0.00" departDelay="0.20" arrival="41.00" arrivalLane="E2_3" arrivalPos="100.88" arrivalPosLat="0.00" arrivalSpeed="10.56" duration="34.00" routeLength="202.78" waitingTime="0.00" waitingCount="0" stopTime="0.00" timeLoss="15.37" rerouteNo="0" devices="tripinfo_E0__0__motorbike.2 emissions_E0__0__motorbike.2" vType="motorbike" speedFactor="1.01" vaporized="">
        <emissions CO_abs="3354.210928" CO2_abs="76677.728762" HC_abs="13.965503" PMx_abs="4.274476" NOx_abs="17.689360" fuel_abs="24459.750773" electricity_abs="0"/>
    </tripinfo>
    <tripinfo id="E0__0__car.1" depart="10.00" departLane="E0_2" departPos="4.60" departPosLat="0.00" departSpeed="0.00" departDelay="2.29" arrival="41.00" arrivalLane="E1_1" arrivalPos="107.01" arrivalPosLat="0.00" arrivalSpeed="9.18" duration="31.00" routeLength="188.24" waitingTime="1.00" waitingCount="1" stopTime="0.00" timeLoss="10.58" rerouteNo="0" devices="tripinfo_E0__0__car.1 emissions_E0__0__car.1" vType="car" speedFactor="0.86" vaporized="">
        <emissions CO_abs="2302.399616" CO2_abs="83213.768993" HC_abs="12.390307" PMx_abs="1.409760" NOx_abs="34.136128" fuel_abs="26542.048381" electricity_abs="0"/>
    </tripinfo>
    <tripinfo id="-E5__0__motorbike.1" depart="3.00" departLane="-E5_3" departPos="2.10" departPosLat="0.00" departSpeed="0.00" departDelay="1.52" arrival="42.00" arrivalLane="E6_1" arrivalPos="109.06" arrivalPosLat="0.00" arrivalSpeed="10.66" duration="39.00" routeLength="262.07" waitingTime="1.00" waitingCount="1" stopTime="0.00" timeLoss="14.46" rerouteNo="0" devices="tripinfo_-E5__0__motorbike.1 emissions_-E5__0__motorbike.1" vType="motorbike" speedFactor="1.05" vaporized="">
        <emissions CO_abs="3876.378937" CO2_abs="101448.852974" HC_abs="16.550629" PMx_abs="5.150446" NOx_abs="23.476090" fuel_abs="32361.432192" electricity_abs="0"/>
    </tripinfo>
    <tripinfo id="-E4__0__car.1" depart="9.00" departLane="-E4_3" departPos="4.60" departPosLat="0.00" departSpeed="0.00" departDelay="0.47" arrival="42.00" arrivalLane="E5_1" arrivalPos="146.08" arrivalPosLat="0.00" arrivalSpeed="9.74" duration="33.00" routeLength="251.16" waitingTime="0.00" waitingCount="0" stopTime="0.00" timeLoss="6.49" rerouteNo="0" devices="tripinfo_-E4__0__car.1 emissions_-E4__0__car.1" vType="car" speedFactor="0.90" vaporized="">
        <emissions CO_abs="1858.517503" CO2_abs="89491.547005" HC_abs="10.499653" PMx_abs="1.336362" NOx_abs="35.382203" fuel_abs="28544.247029" electricity_abs="0"/>
    </tripinfo>
    <tripinfo id="-E1__0__car.3" depart="12.00" departLane="-E1_2" departPos="4.60" departPosLat="0.00" departSpeed="0.00" departDelay="0.74" arrival="42.00" arrivalLane="E2_1" arrivalPos="100.88" arrivalPosLat="0.00" arrivalSpeed="9.93" duration="30.00" routeLength="212.32" waitingTime="0.00" waitingCount="0" stopTime="0.00" timeLoss="8.20" rerouteNo="0" devices="tripinfo_-E1__0__car.3 emissions_-E1__0__car.3" vType="car" speedFactor="0.93" vaporized="">
        <emissions CO_abs="1956.675105" CO2_abs="81576.189427" HC_abs="10.777064" PMx_abs="1.315524" NOx_abs="32.891254" fuel_abs="26019.618107" electricity_abs="0"/>
    </tripinfo>
    <tripinfo id="E0__0__motorbike.3" depart="12.00" departLane="E0_1" departPos="2.10" departPosLat="0.00" departSpeed="0.00" departDelay="1.12" arrival="43.00" arrivalLane="E1_1" arrivalPos="107.01" arrivalPosLat="0.00" arrivalSpeed="10.04" duration="31.00" routeLength="190.74" waitingTime="1.00" waitingCount="1" stopTime="0.00" timeLoss="11.21" rerouteNo="0" devices="tripinfo_E0__0__motorbike.3 emissions_E0__0__motorbike.3" vType="motorbike" speedFactor="0.93" vaporized="">
        <emissions CO_abs="3367.538380" CO2_abs="74986.376475" HC_abs="13.988779" PMx_abs="4.288188" NOx_abs="17.226484" fuel_abs="23920.249858" electricity_abs="0"/>
    </tripinfo>
    <tripinfo id="E0__0__motorbike.5" depart="13.00" departLane="E0_2" departPos="2.10" departPosLat="0.00" departSpeed="0.00" departDelay="0.68" arrival="43.00" arrivalLane="E2_2" arrivalPos="100.88" arrivalPosLat="0.00" arrivalSpeed="11.10" duration="30.00" routeLength="202.78" waitingTime="0.00" waitingCount="0" stopTime="0.00" timeLoss="10.91" rerouteNo="0" devices="tripinfo_E0__0__motorbike.5 emissions_E0__0__motorbike.5" vType="motorbike" speedFactor="1.16" vaporized="">
        <emissions CO_abs="3059.000070" CO2_abs="79205.856354" HC_abs="13.039485" PMx_abs="4.054546" NOx_abs="18.319692" fuel_abs="25266.084670" electricity_abs="0"/>
    </tripinfo>
    <tripinfo id="E0__0__car.3" depart="16.00" departLane="E0_1" departPos="4.60" departPosLat="0.00" departSpeed="0.00" departDelay="0.32" arrival="45.00" arrivalLane="E2_2" arrivalPos="100.88" arrivalPosLat="0.00" arrivalSpeed="11.10" duration="29.00" routeLength="200.28" waitingTime="0.00" waitingCount="0" stopTime="0.00" timeLoss="10.20" rerouteNo="0" devices="tripinfo_E0__0__car.3 emissions_E0__0__car.3" vType="car" speedFactor="1.08" vaporized="">
        <emissions CO_abs="1852.985707" CO2_abs="81515.488180" HC_abs="10.300722" PMx_abs="1.283427" NOx_abs="32.660899" fuel_abs="26000.227521" electricity_abs="0"/>
    </tripinfo>
    <tripinfo id="E0__0__motorbike.4" depart="12.00" departLane="E0_3" departPos="2.10" departPosLat="0.00" departSpeed="0.00" departDelay="0.97" arrival="47.00" arrivalLane="E1_1" arrivalPos="107.01" arrivalPosLat="1.05" arrivalSpeed="10.48" duration="35.00" routeLength="190.74" waitingTime="0.00" waitingCount="0" stopTime="0.00" timeLoss="16.92" rerouteNo="0" devices="tripinfo_E0__0__motorbike.4 emissions_E0__0__motorbike.4" vType="motorbike" speedFactor="0.97" vaporized="">
        <emissions CO_abs="3474.465631" CO2_abs="74140.606686" HC_abs="14.242593" PMx_abs="4.283995" NOx_abs="17.228806" fuel_abs="23650.455810" electricity_abs="0"/>
    </tripinfo>
    <tripinfo id="E0__0__motorbike.6" depart="16.00" departLane="E0_3" departPos="2.10" departPosLat="0.00" departSpeed="0.00" departDelay="0.07" arrival="47.00" arrivalLane="E1_1" arrivalPos="107.01" arrivalPosLat="0.00" arrivalSpeed="7.99" duration="31.00" routeLength="190.74" waitingTime="0.00" waitingCount="0" stopTime="0.00" timeLoss="7.49" rerouteNo="0" devices="tripinfo_E0__0__motorbike.6 emissions_E0__0__motorbike.6" vType="motorbike" speedFactor="0.79" vaporized="">
        <emissions CO_abs="2502.969911" CO2_abs="62618.027903" HC_abs="10.396376" PMx_abs="3.091406" NOx_abs="14.927096" fuel_abs="19974.684011" electricity_abs="0"/>
    </tripinfo>
    <tripinfo id="E0__0__motorbike.7" depart="20.00" departLane="E0_1" departPos="2.10" departPosLat="0.00" departSpeed="0.00" departDelay="2.63" arrival="47.00" arrivalLane="E2_2" arrivalPos="100.88" arrivalPosLat="0.00" arrivalSpeed="10.30" duration="27.00" routeLength="202.78" waitingTime="0.00" waitingCount="0" stopTime="0.00" timeLoss="7.14" rerouteNo="0" devices="tripinfo_E0__0__motorbike.7 emissions_E0__0__motorbike.7" vType="motorbike" speedFactor="0.95" vaporized="">
        <emissions CO_abs="1967.525849" CO2_abs="54446.295613" HC_abs="8.454738" PMx_abs="2.619844" NOx_abs="12.725171" fuel_abs="17367.902969" electricity_abs="0"/>
    </tripinfo>
    <tripinfo id="-E2__0__car.1" depart="1.00" departLane="-E2_3" departPos="4.60" departPosLat="0.00" departSpeed="0.00" departDelay="0.81" arrival="49.00" arrivalLane="E5_2" arrivalPos="146.08" arrivalPosLat="0.00" arrivalSpeed="10.84" duration="48.00" routeLength="434.46" waitingTime="0.00" waitingCount="0" stopTime="0.00" timeLoss="7.50" rerouteNo="0" devices="tripinfo_-E2__0__car.1 emissions_-E2__0__car.1" vType="car" speedFactor="1.12" vaporized="">
        <emissions CO_abs="1967.130556" CO2_abs="120718.649077" HC_abs="11.691763" PMx_abs="1.614067" NOx_abs="46.064215" fuel_abs="38504.357242" electricity_abs="0"/>
    </tripinfo>
    <tripinfo id="-E4__0__car.2" depart="15.00" departLane="-E4_3" departPos="4.60" departPosLat="0.00" departSpeed="0.00" departDelay="0.85" arrival="49.00" arrivalLane="E5_1" arrivalPos="146.08" arrivalPosLat="0.00" arrivalSpeed="10.45" duration="34.00" routeLength="251.16" waitingTime="0.00" waitingCount="0" stopTime="0.00" timeLoss="9.15" rerouteNo="0" devices="tripinfo_-E4__0__car.2 emissions_-E4__0__car.2" vType="car" speedFactor="0.97" vaporized="">
        <emissions CO_abs="2053.723680" CO2_abs="93161.099729" HC_abs="11.476512" PMx_abs="1.432536" NOx_abs="37.092250" fuel_abs="29714.717791" electricity_abs="0"/>
    </tripinfo>
    <tripinfo id="-E2__0__car.0" depart="1.00" departLane="-E2_2" departPos="4.60" departPosLat="0.00" departSpeed="0.00" departDelay="0.91" arrival="50.00" arrivalLane="E4_1" arrivalPos="100.65" arrivalPosLat="0.00" arrivalSpeed="10.53" duration="49.00" routeLength="370.86" waitingTime="1.00" waitingCount="1" stopTime="0.00" timeLoss="14.31" rerouteNo="0" devices="tripinfo_-E2__0__car.0 emissions_-E2__0__car.0" vType="car" speedFactor="1.07" vaporized="">
        <emissions CO_abs="3013.634219" CO2_abs="133568.899381" HC_abs="16.790770" PMx_abs="2.171436" NOx_abs="53.867953" fuel_abs="42603.128949" electricity_abs="0"/>
    </tripinfo>
    <tripinfo id="-E4__0__motorbike.3" depart="17.00" departLane="-E4_3" departPos="2.10" departPosLat="0.00" departSpeed="0.00" departDelay="0.74" arrival="50.00" arrivalLane="E5_1" arrivalPos="146.08" arrivalPosLat="0.00" arrivalSpeed="10.77" duration="33.00" routeLength="253.66" waitingTime="1.00" waitingCount="1" stopTime="0.00" timeLoss="8.77" rerouteNo="0" devices="tripinfo_-E4__0__motorbike.3 emissions_-E4__0__motorbike.3" vType="motorbike" speedFactor="0.98" vaporized="">
        <emissions CO_abs="2856.558222" CO2_abs="80942.499698" HC_abs="12.408815" PMx_abs="3.905945" NOx_abs="18.749807" fuel_abs="25819.970530" electricity_abs="0"/>
    </tripinfo>
    <tripinfo id="E0__0__car.4" depart="20.00" departLane="E0_3" departPos="4.60" departPosLat="0.00" departSpeed="0.00" departDelay="3.25" arrival="50.00" arrivalLane="E1_1" arrivalPos="107.01" arrivalPosLat="0.00" arrivalSpeed="10.57" duration="30.00" routeLength="188.24" waitingTime="0.00" waitingCount="0" stopTime="0.00" timeLoss="11.94" rerouteNo="0" devices="tripinfo_E0__0__car.4 emissions_E0__0__car.4" vType="car" speedFactor="1.08" vaporized="">
        <emissions CO_abs="2226.169051" CO2_abs="85197.810644" HC_abs="12.092718" PMx_abs="1.439413" NOx_abs="34.735194" fuel_abs="27174.823008" electricity_abs="0"/>
    </tripinfo>
    <tripinfo id="-E4__0__motorbike.4" depart="20.00" departLane="-E4_1" departPos="2.10" departPosLat="0.00" departSpeed="0.00" departDelay="0.44" arrival="51.00" arrivalLane="E5_2" arrivalPos="146.08" arrivalPosLat="0.00" arrivalSpeed="10.79" duration="31.00" routeLength="253.66" waitingTime="0.00" waitingCount="0" stopTime="0.00" timeLoss="7.53" rerouteNo="0" devices="tripinfo_-E4__0__motorbike.4 emissions_-E4__0__motorbike.4" vType="motorbike" speedFactor="1.01" vaporized="">
        <emissions CO_abs="2600.188002" CO2_abs="74168.681489" HC_abs="11.394875" PMx_abs="3.646165" NOx_abs="16.975177" fuel_abs="23659.205312" electricity_abs="0"/>
    </tripinfo>
    <tripinfo id="-E5__0__car.3" depart="18.00" departLane="-E5_3" departPos="4.60" departPosLat="0.00" departSpeed="0.00" departDelay="0.91" arrival="54.00" arrivalLane="E6_1" arrivalPos="109.06" arrivalPosLat="0.00" arrivalSpeed="9.57" duration="36.00" routeLength="259.57" waitingTime="0.00" waitingCount="0" stopTime="0.00" timeLoss="9.57" rerouteNo="0" devices="tripinfo_-E5__0__car.3 emissions_-E5__0__car.3" vType="car" speedFactor="0.93" vaporized="">
        <emissions CO_abs="2184.825703" CO2_abs="96128.634071" HC_abs="12.154464" PMx_abs="1.564413" NOx_abs="38.919523" fuel_abs="30661.181332" electricity_abs="0"/>
    </tripinfo>
    <tripinfo id="-E1__0__motorbike.6" depart="28.00" departLane="-E1_3" departPos="2.10" departPosLat="0.00" departSpeed="0.00" departDelay="1.77" arrival="55.00" arrivalLane="E2_1" arrivalPos="100.88" arrivalPosLat="0.00" arrivalSpeed="10.38" duration="27.00" routeLength="214.82" waitingTime="0.00" waitingCount="0" stopTime="0.00" timeLoss="6.98" rerouteNo="0" devices="tripinfo_-E1__0__motorbike.6 emissions_-E1__0__motorbike.6" vType="motorbike" speedFactor="1.02" vaporized="">
        <emissions CO_abs="2438.667237" CO2_abs="69950.757210" HC_abs="10.688112" PMx_abs="3.415766" NOx_abs="16.036586" fuel_abs="22313.717952" electricity_abs="0"/>
    </tripinfo>
    <tripinfo id="-E4__0__motorbike.2" depart="15.00" departLane="-E4_2" departPos="2.10" departPosLat="0.00" departSpeed="0.00" departDelay="0.64" arrival="56.00" arrivalLane="E6_2" arrivalPos="109.06" arrivalPosLat="0.00" arrivalSpeed="10.46" duration="41.00" routeLength="234.81" waitingTime="3.00" waitingCount="2" stopTime="0.00" timeLoss="19.01" rerouteNo="0" devices="tripinfo_-E4__0__motorbike.2 emissions_-E4__0__motorbike.2" vType="motorbike" speedFactor="1.07" vaporized="">
        <emissions CO_abs="4688.778133" CO2_abs="96241.336335" HC_abs="19.118742" PMx_abs="5.732776" NOx_abs="22.330914" fuel_abs="30700.500313" electricity_abs="0"/>
    </tripinfo>
    <tripinfo id="E0__0__motorbike.8" depart="22.00" departLane="E0_1" departPos="2.10" departPosLat="0.00" departSpeed="0.00" departDelay="2.72" arrival="56.00" arrivalLane="E1_1" arrivalPos="107.01" arrivalPosLat="0.00" arrivalSpeed="9.01" duration="34.00" routeLength="190.74" waitingTime="2.00" waitingCount="2" stopTime="0.00" timeLoss="11.42" rerouteNo="0" devices="tripinfo_E0__0__motorbike.8 emissions_E0__0__motorbike.8" vType="motorbike" speedFactor="0.81" vaporized="">
        <emissions CO_abs="3482.423433" CO2_abs="72184.693193" HC_abs="14.131517" PMx_abs="4.189431" NOx_abs="16.932575" fuel_abs="23026.554031" electricity_abs="0"/>
    </tripinfo>
    <tripinfo id="E0__0__motorbike.12" depart="27.00" departLane="E0_3" departPos="2.10" departPosLat="0.00" departSpeed="0.00" departDelay="0.05" arrival="57.00" arrivalLane="E1_1" arrivalPos="107.01" arrivalPosLat="0.00" arrivalSpeed="9.85" duration="30.00" routeLength="190.74" waitingTime="0.00" waitingCount="0" stopTime="0.00" timeLoss="12.12" rerouteNo="0" devices="tripinfo_E0__0__motorbike.12 emissions_E0__0__motorbike.12" vType="motorbike" speedFactor="1.01" vaporized="">
        <emissions CO_abs="3132.893771" CO2_abs="77025.264002" HC_abs="13.292964" PMx_abs="4.155176" NOx_abs="17.619779" fuel_abs="24570.569288" electricity_abs="0"/>
    </tripinfo>
    <tripinfo id="-E4__0__motorbike.1" depart="9.00" departLane="-E4_2" departPos="2.10" departPosLat="0.00" departSpeed="0.00" departDelay="0.54" arrival="58.00" arrivalLane="E6_2" arrivalPos="109.06" arrivalPosLat="0.00" arrivalSpeed="9.22" duration="49.00" routeLength="234.81" waitingTime="9.00" waitingCount="2" stopTime="0.00" timeLoss="23.49" rerouteNo="0" devices="tripinfo_-E4__0__motorbike.1 emissions_-E4__0__motorbike.1" vType="motorbike" speedFactor="0.86" vaporized="">
        <emissions CO_abs="5533.882073" CO2_abs="94957.649829" HC_abs="21.736650" PMx_abs="6.228313" NOx_abs="22.561518" fuel_abs="30291.162533" electricity_abs="0"/>
    </tripinfo>
    <tripinfo id="-E5__0__motorbike.8" depart="24.00" departLane="-E5_2" departPos="2.10" departPosLat="0.00" departSpeed="0.00" departDelay="0.62" arrival="58.00" arrivalLane="E6_1" arrivalPos="109.06" arrivalPosLat="0.00" arrivalSpeed="10.17" duration="34.00" routeLength="262.07" waitingTime="0.00" waitingCount="0" stopTime="0.00" timeLoss="6.99" rerouteNo="0" devices="tripinfo_-E5__0__motorbike.8 emissions_-E5__0__motorbike.8" vType="motorbike" speedFactor="0.92" vaporized="">
        <emissions CO_abs="2856.254787" CO2_abs="79714.254879" HC_abs="12.434437" PMx_abs="3.955407" NOx_abs="18.277254" fuel_abs="25428.230196" electricity_abs="0"/>
    </tripinfo>
    <tripinfo id="-E4__0__motorbike.6" depart="27.00" departLane="-E4_2" departPos="2.10" departPosLat="0.00" departSpeed="0.00" departDelay="1.20" arrival="58.00" arrivalLane="E5_2" arrivalPos="146.08" arrivalPosLat="0.00" arrivalSpeed="10.65" duration="31.00" routeLength="253.66" waitingTime="0.00" waitingCount="0" stopTime="0.00" timeLoss="7.28" rerouteNo="0" devices="tripinfo_-E4__0__motorbike.6 emissions_-E4__0__motorbike.6" vType="motorbike" speedFactor="1.00" vaporized="">
        <emissions CO_abs="2671.299449" CO2_abs="77275.655231" HC_abs="11.691899" PMx_abs="3.713698" NOx_abs="17.819837" fuel_abs="24650.268285" electricity_abs="0"/>
    </tripinfo>
    <tripinfo id="E0__0__motorbike.13" depart="29.00" departLane="E0_2" departPos="2.10" departPosLat="0.00" departSpeed="0.00" departDelay="0.21" arrival="58.00" arrivalLane="E1_1" arrivalPos="107.01" arrivalPosLat="0.00" arrivalSpeed="10.33" duration="29.00" routeLength="190.74" waitingTime="1.00" waitingCount="1" stopTime="0.00" timeLoss="11.20" rerouteNo="0" devices="tripinfo_E0__0__motorbike.13 emissions_E0__0__motorbike.13" vType="motorbike" speedFactor="0.99" vaporized="">
        <emissions CO_abs="3300.825075" CO2_abs="78543.849045" HC_abs="13.866946" PMx_abs="4.277304" NOx_abs="18.098920" fuel_abs="25054.983080" electricity_abs="0"/>
    </tripinfo>
    <tripinfo id="-E1__0__motorbike.9" depart="31.00" departLane="-E1_1" departPos="2.10" departPosLat="0.00" departSpeed="0.00" departDelay="0.11" arrival="58.00" arrivalLane="E2_1" arrivalPos="100.88" arrivalPosLat="0.00" arrivalSpeed="10.69" duration="27.00" routeLength="214.82" waitingTime="0.00" waitingCount="0" stopTime="0.00" timeLoss="7.14" rerouteNo="0" devices="tripinfo_-E1__0__motorbike.9 emissions_-E1__0__motorbike.9" vType="motorbike" speedFactor="1.08" vaporized="">
        <emissions CO_abs="2421.762836" CO2_abs="68744.676713" HC_abs="10.619350" PMx_abs="3.409361" NOx_abs="15.680190" fuel_abs="21929.011139" electricity_abs="0"/>
    </tripinfo>
    <tripinfo id="-E4__0__car.3" depart="24.00" departLane="-E4_3" departPos="4.60" departPosLat="0.00" departSpeed="0.00" departDelay="0.00" arrival="59.00" arrivalLane="E6_2" arrivalPos="109.06" arrivalPosLat="0.00" arrivalSpeed="10.34" duration="35.00" routeLength="232.31" waitingTime="0.00" waitingCount="0" stopTime="0.00" timeLoss="14.04" rerouteNo="0" devices="tripinfo_-E4__0__car.3 emissions_-E4__0__car.3" vType="car" speedFactor="1.19" vaporized="">
        <emissions CO_abs="2409.271755" CO2_abs="97598.088215" HC_abs="13.210813" PMx_abs="1.623741" NOx_abs="39.768048" fuel_abs="31129.957543" electricity_abs="0"/>
    </tripinfo>
    <tripinfo id="-E5__0__motorbike.9" depart="26.00" departLane="-E5_1" departPos="2.10" departPosLat="0.00" departSpeed="0.00" departDelay="0.15" arrival="59.00" arrivalLane="E6_1" arrivalPos="109.06" arrivalPosLat="1.05" arrivalSpeed="10.69" duration="33.00" routeLength="262.07" waitingTime="0.00" waitingCount="0" stopTime="0.00" timeLoss="8.09" rerouteNo="0" devices="tripinfo_-E5__0__motorbike.9 emissions_-E5__0__motorbike.9" vType="motorbike" speedFactor="1.12" vaporized="">
        <emissions CO_abs="2911.321003" CO2_abs="84996.957361" HC_abs="12.775004" PMx_abs="4.069446" NOx_abs="19.577477" fuel_abs="27113.300284" electricity_abs="0"/>
    </tripinfo>
    <tripinfo id="-E1__0__motorbike.8" depart="29.00" departLane="-E1_2" departPos="2.10" departPosLat="0.00" departSpeed="0.00" departDelay="0.71" arrival="60.00" arrivalLane="E2_1" arrivalPos="100.88" arrivalPosLat="0.00" arrivalSpeed="10.44" duration="31.00" routeLength="214.82" waitingTime="0.00" waitingCount="0" stopTime="0.00" timeLoss="10.57" rerouteNo="0" devices="tripinfo_-E1__0__motorbike.8 emissions_-E1__0__motorbike.8" vType="motorbike" speedFactor="1.01" vaporized="">
        <emissions CO_abs="3102.651062" CO2_abs="74645.541640" HC_abs="13.093814" PMx_abs="4.065709" NOx_abs="17.128394" fuel_abs="23811.446057" electricity_abs="0"/>
    </tripinfo>
    <tripinfo id="-E4__0__car.4" depart="28.00" departLane="-E4_3" departPos="4.60" departPosLat="0.00" departSpeed="0.00" departDelay="2.62" arrival="61.00" arrivalLane="E6_2" arrivalPos="109.06" arrivalPosLat="0.70" arrivalSpeed="11.01" duration="33.00" routeLength="232.31" waitingTime="0.00" waitingCount="0" stopTime="0.00" timeLoss="11.61" rerouteNo="0" devices="tripinfo_-E4__0__car.4 emissions_-E4__0__car.4" vType="car" speedFactor="1.08" vaporized="">
        <emissions CO_abs="2047.944589" CO2_abs="88513.174353" HC_abs="11.368963" PMx_abs="1.514546" NOx_abs="36.357494" fuel_abs="28232.090634" electricity_abs="0"/>
    </tripinfo>
    <tripinfo id="-E4__0__motorbike.7" depart="29.00" departLane="-E4_1" departPos="2.10" departPosLat="0.00" departSpeed="0.00" departDelay="0.46" arrival="61.00" arrivalLane="E6_2" arrivalPos="109.06" arrivalPosLat="-1.25" arrivalSpeed="10.07" duration="32.00" routeLength="234.81" waitingTime="0.00" waitingCount="0" stopTime="0.00" timeLoss="9.71" rerouteNo="0" devices="tripinfo_-E4__0__motorbike.7 emissions_-E4__0__motorbike.7" vType="motorbike" speedFactor="0.97" vaporized="">
        <emissions CO_abs="2800.025432" CO2_abs="75191.259645" HC_abs="12.084071" PMx_abs="3.819903" NOx_abs="17.239368" fuel_abs="23985.465244" electricity_abs="0"/>
    </tripinfo>
    <tripinfo id="-E2__0__motorbike.5" depart="13.00" departLane="-E2_2" departPos="2.10" departPosLat="0.00" departSpeed="0.00" departDelay="0.71" arrival="62.00" arrivalLane="E4_1" arrivalPos="100.65" arrivalPosLat="0.00" arrivalSpeed="10.85" duration="49.00" routeLength="373.36" waitingTime="0.00" waitingCount="0" stopTime="0.00" timeLoss="13.85" rerouteNo="0" devices="tripinfo_-E2__0__motorbike.5 emissions_-E2__0__motorbike.5" vType="motorbike" speedFactor="1.05" vaporized="">
        <emissions CO_abs="4401.504503" CO2_abs="119927.736847" HC_abs="18.979206" PMx_abs="5.953888" NOx_abs="27.716797" fuel_abs="38255.989877" electricity_abs="0"/>
    </tripinfo>