<?xml version="1.0" encoding="UTF-8"?>

<!-- generated on 2026-06-21 13:31:19 by Eclipse SUMO GUI Version 1.18.0
<configuration xmlns:xsi="http://www.w3.org/2001/XMLSchema-instance" xsi:noNamespaceSchemaLocation="http://sumo.dlr.de/xsd/sumoConfiguration.xsd">

    <input>
        <net-file value="Scenario/test/env/test.net.xml"/>
        <route-files value="Scenario/test/env/../routes/vehicle.rou.xml"/>
        <additional-files value="Scenario/test/env/../add/tls.add.xml,Scenario/test/env/ ../add/e2.add.xml"/>
    </input>

    <output>
        <netstate-dump value="Scenario/test/env/../output/e2.netstate.xml"/>
        <netstate-dump.precision value="2"/>
        <summary-output value="Scenario/test/env/../output/e2_summary.output.xml"/>
        <tripinfo-output value="/home/hoanganh/Project/TSC-CoLight/deploy_test_small.tripinfo.xml"/>
        <tripinfo-output.write-unfinished value="true"/>
    </output>

    <time>
        <begin value="0"/>
        <end value="500"/>
        <step-length value="1.0"/>
    </time>

    <processing>
        <lateral-resolution value="0.2"/>
        <time-to-teleport value="-1"/>
        <waiting-time-memory value="10000"/>
        <max-depart-delay value="100000"/>
    </processing>

    <report>
        <no-warnings value="true"/>
        <no-step-log value="true"/>
    </report>

    <emissions>
        <device.emissions.probability value="1.0"/>
    </emissions>

    <traci_server>
        <remote-port value="39599"/>
    </traci_server>

    <random_number>
        <random value="true"/>
    </random_number>

    <gui_only>
        <quit-on-end value="true"/>
        <start value="true"/>
    </gui_only>

</configuration>
-->

<tripinfos xmlns:xsi="http://www.w3.org/2001/XMLSchema-instance" xsi:noNamespaceSchemaLocation="http://sumo.dlr.de/xsd/tripinfo_file.xsd">
    <tripinfo id="E0__0__car.0" depart="16.00" departLane="E0_1" departPos="4.60" departPosLat="0.00" departSpeed="0.00" departDelay="0.07" arrival="41.00" arrivalLane="E2_2" arrivalPos="100.88" arrivalPosLat="0.00" arrivalSpeed="9.53" duration="25.00" routeLength="200.28" waitingTime="0.00" waitingCount="0" stopTime="0.00" timeLoss="4.34" rerouteNo="0" devices="tripinfo_E0__0__car.0 emissions_E0__0__car.0" vType="car" speedFactor="0.89" vaporized="">
        <emissions CO_abs="1270.132051" CO2_abs="62158.085169" HC_abs="7.188162" PMx_abs="0.869070" NOx_abs="24.126662" fuel_abs="19826.018814" electricity_abs="0"/>
    </tripinfo>
    <tripinfo id="-E4__0__motorbike.1" depart="18.00" departLane="-E4_3" departPos="2.10" departPosLat="0.00" departSpeed="0.00" departDelay="0.63" arrival="56.00" arrivalLane="E6_2" arrivalPos="109.06" arrivalPosLat="0.00" arrivalSpeed="10.49" duration="38.00" routeLength="234.81" waitingTime="7.00" waitingCount="1" stopTime="0.00" timeLoss="15.55" rerouteNo="0" devices="tripinfo_-E4__0__motorbike.1 emissions_-E4__0__motorbike.1" vType="motorbike" speedFactor="0.98" vaporized="">
        <emissions CO_abs="4281.308017" CO2_abs="89124.181471" HC_abs="17.526061" PMx_abs="5.277368" NOx_abs="20.650062" fuel_abs="28430.131154" electricity_abs="0"/>
    </tripinfo>
    <tripinfo id="-E5__0__motorbike.1" depart="26.00" departLane="-E5_3" departPos="2.10" departPosLat="0.00" departSpeed="0.00" departDelay="0.10" arrival="58.00" arrivalLane="E6_1" arrivalPos="109.06" arrivalPosLat="0.00" arrivalSpeed="10.74" duration="32.00" routeLength="262.07" waitingTime="0.00" waitingCount="0" stopTime="0.00" timeLoss="7.47" rerouteNo="0" devices="tripinfo_-E5__0__motorbike.1 emissions_-E5__0__motorbike.1" vType="motorbike" speedFactor="1.11" vaporized="">
        <emissions CO_abs="2594.220140" CO2_abs="72835.481884" HC_abs="11.315299" PMx_abs="3.603434" NOx_abs="16.697706" fuel_abs="23233.934574" electricity_abs="0"/>
    </tripinfo>
    <tripinfo id="-E2__0__car.0" depart="11.00" departLane="-E2_3" departPos="4.60" departPosLat="0.00" departSpeed="0.00" departDelay="0.12" arrival="70.00" arrivalLane="-E0_2" arrivalPos="76.80" arrivalPosLat="0.00" arrivalSpeed="10.30" duration="59.00" routeLength="200.28" waitingTime="31.00" waitingCount="1" stopTime="0.00" timeLoss="40.07" rerouteNo="0" devices="tripinfo_-E2__0__car.0 emissions_-E2__0__car.0" vType="car" speedFactor="0.95" vaporized="">
        <emissions CO_abs="7158.816132" CO2_abs="166771.164568" HC_abs="36.484297" PMx_abs="3.536557" NOx_abs="72.563698" fuel_abs="53194.544318" electricity_abs="0"/>
    </tripinfo>
    <tripinfo id="-E5__0__motorbike.0" depart="12.00" departLane="-E5_1" departPos="2.10" departPosLat="0.00" departSpeed="0.00" departDelay="0.97" arrival="73.00" arrivalLane="E4_3" arrivalPos="100.65" arrivalPosLat="0.00" arrivalSpeed="10.74" duration="61.00" routeLength="269.14" waitingTime="25.00" waitingCount="1" stopTime="0.00" timeLoss="35.84" rerouteNo="0" devices="tripinfo_-E5__0__motorbike.0 emissions_-E5__0__motorbike.0" vType="motorbike" speedFactor="1.08" vaporized="">
        <emissions CO_abs="7791.327697" CO2_abs="119170.843010" HC_abs="30.248915" PMx_abs="8.613326" NOx_abs="28.197220" fuel_abs="38015.229708" electricity_abs="0"/>
    </tripinfo>
    <tripinfo id="-E2__0__car.1" depart="29.00" departLane="-E2_1" departPos="4.60" departPosLat="0.00" departSpeed="0.00" departDelay="0.21" arrival="73.00" arrivalLane="-E0_2" arrivalPos="76.80" arrivalPosLat="0.00" arrivalSpeed="10.63" duration="44.00" routeLength="200.28" waitingTime="14.00" waitingCount="1" stopTime="0.00" timeLoss="25.30" rerouteNo="0" devices="tripinfo_-E2__0__car.1 emissions_-E2__0__car.1" vType="car" speedFactor="1.14" vaporized="">
        <emissions CO_abs="4667.944865" CO2_abs="129234.500906" HC_abs="24.252116" PMx_abs="2.549139" NOx_abs="54.980820" fuel_abs="41221.239907" electricity_abs="0"/>
    </tripinfo>
    <tripinfo id="-E2__0__motorbike.0" depart="55.00" departLane="-E2_3" departPos="2.10" departPosLat="0.00" departSpeed="0.00" departDelay="0.06" arrival="80.00" arrivalLane="-E0_2" arrivalPos="76.80" arrivalPosLat="0.00" arrivalSpeed="10.07" duration="25.00" routeLength="202.78" waitingTime="0.00" waitingCount="0" stopTime="0.00" timeLoss="4.71" rerouteNo="0" devices="tripinfo_-E2__0__motorbike.0 emissions_-E2__0__motorbike.0" vType="motorbike" speedFactor="0.91" vaporized="">
        <emissions CO_abs="1778.231668" CO2_abs="54450.057948" HC_abs="7.745319" PMx_abs="2.390091" NOx_abs="12.900202" fuel_abs="17369.023835" electricity_abs="0"/>
    </tripinfo>
    <tripinfo id="-E4__0__motorbike.0" depart="4.00" departLane="-E4_3" departPos="2.10" departPosLat="0.00" departSpeed="0.00" departDelay="0.42" arrival="90.00" arrivalLane="E2_3" arrivalPos="100.88" arrivalPosLat="0.00" arrivalSpeed="11.08" duration="86.00" routeLength="404.32" waitingTime="32.00" waitingCount="2" stopTime="0.00" timeLoss="49.30" rerouteNo="0" devices="tripinfo_-E4__0__motorbike.0 emissions_-E4__0__motorbike.0" vType="motorbike" speedFactor="1.01" vaporized="">
        <emissions CO_abs="10861.879758" CO2_abs="172495.995352" HC_abs="42.435065" PMx_abs="12.173750" NOx_abs="40.652191" fuel_abs="55025.755884" electricity_abs="0"/>
    </tripinfo>
    <tripinfo id="-E6__0__motorbike.1" depart="7.00" departLane="-E6_1" departPos="2.10" departPosLat="0.00" departSpeed="0.00" departDelay="0.20" arrival="91.00" arrivalLane="E4_2" arrivalPos="100.65" arrivalPosLat="0.00" arrivalSpeed="10.77" duration="84.00" routeLength="234.81" waitingTime="52.00" waitingCount="1" stopTime="0.00" timeLoss="61.40" rerouteNo="0" devices="tripinfo_-E6__0__motorbike.1 emissions_-E6__0__motorbike.1" vType="motorbike" speedFactor="0.98" vaporized="">
        <emissions CO_abs="12354.615717" CO2_abs="147960.131380" HC_abs="46.511942" PMx_abs="12.831989" NOx_abs="35.470664" fuel_abs="47199.500541" electricity_abs="0"/>
    </tripinfo>
    <tripinfo id="-E6__0__motorbike.2" depart="13.00" departLane="-E6_3" departPos="2.10" departPosLat="0.00" departSpeed="0.00" departDelay="0.68" arrival="91.00" arrivalLane="E1_2" arrivalPos="107.01" arrivalPosLat="0.00" arrivalSpeed="10.46" duration="78.00" routeLength="406.07" waitingTime="28.00" waitingCount="1" stopTime="0.00" timeLoss="40.45" rerouteNo="0" devices="tripinfo_-E6__0__motorbike.2 emissions_-E6__0__motorbike.2" vType="motorbike" speedFactor="1.00" vaporized="">
        <emissions CO_abs="9180.314903" CO2_abs="151260.665785" HC_abs="36.035732" PMx_abs="10.373447" NOx_abs="35.664228" fuel_abs="48251.652367" electricity_abs="0"/>
    </tripinfo>
    <tripinfo id="-E5__0__car.0" depart="41.00" departLane="-E5_2" departPos="4.60" departPosLat="0.00" departSpeed="0.00" departDelay="0.15" arrival="93.00" arrivalLane="E2_3" arrivalPos="100.88" arrivalPosLat="0.00" arrivalSpeed="11.04" duration="52.00" routeLength="449.94" waitingTime="0.00" waitingCount="0" stopTime="0.00" timeLoss="10.86" rerouteNo="0" devices="tripinfo_-E5__0__car.0 emissions_-E5__0__car.0" vType="car" speedFactor="1.13" vaporized="">
        <emissions CO_abs="2342.448565" CO2_abs="129850.372968" HC_abs="13.625050" PMx_abs="1.879959" NOx_abs="50.525900" fuel_abs="41416.990003" electricity_abs="0"/>
    </tripinfo>
    <tripinfo id="-E6__1__car.0" depart="65.00" departLane="-E6_3" departPos="4.60" departPosLat="0.00" departSpeed="0.00" departDelay="0.84" arrival="93.00" arrivalLane="E4_2" arrivalPos="100.65" arrivalPosLat="0.00" arrivalSpeed="10.33" duration="28.00" routeLength="232.31" waitingTime="0.00" waitingCount="0" stopTime="0.00" timeLoss="5.58" rerouteNo="0" devices="tripinfo_-E6__1__car.0 emissions_-E6__1__car.0" vType="car" speedFactor="0.97" vaporized="">
        <emissions CO_abs="1388.847573" CO2_abs="72868.461806" HC_abs="7.981488" PMx_abs="1.054117" NOx_abs="28.403581" fuel_abs="23242.120131" electricity_abs="0"/>
    </tripinfo>
    <tripinfo id="-E6__0__motorbike.0" depart="7.00" departLane="-E6_2" departPos="2.10" departPosLat="0.00" departSpeed="0.00" departDelay="0.46" arrival="95.00" arrivalLane="E5_3" arrivalPos="146.08" arrivalPosLat="0.00" arrivalSpeed="10.63" duration="88.00" routeLength="277.55" waitingTime="52.00" waitingCount="1" stopTime="0.00" timeLoss="62.16" rerouteNo="0" devices="tripinfo_-E6__0__motorbike.0 emissions_-E6__0__motorbike.0" vType="motorbike" speedFactor="1.14" vaporized="">
        <emissions CO_abs="12627.265103" CO2_abs="148944.607244" HC_abs="47.518374" PMx_abs="13.129667" NOx_abs="35.584905" fuel_abs="47513.613206" electricity_abs="0"/>
    </tripinfo>
    <tripinfo id="-E1__0__car.0" depart="27.00" departLane="-E1_3" departPos="4.60" departPosLat="0.00" departSpeed="0.00" departDelay="0.30" arrival="109.00" arrivalLane="E6_3" arrivalPos="109.06" arrivalPosLat="0.00" arrivalSpeed="11.03" duration="82.00" routeLength="419.05" waitingTime="33.00" waitingCount="1" stopTime="0.00" timeLoss="44.11" rerouteNo="0" devices="tripinfo_-E1__0__car.0 emissions_-E1__0__car.0" vType="car" speedFactor="1.01" vaporized="">
        <emissions CO_abs="7876.514585" CO2_abs="213591.346621" HC_abs="40.796649" PMx_abs="4.061753" NOx_abs="89.495739" fuel_abs="68128.397816" electricity_abs="0"/>
    </tripinfo>
    <tripinfo id="E0__0__car.1" depart="48.00" departLane="E0_1" departPos="4.60" departPosLat="0.00" departSpeed="0.00" departDelay="0.08" arrival="109.00" arrivalLane="E2_2" arrivalPos="100.88" arrivalPosLat="0.00" arrivalSpeed="10.56" duration="61.00" routeLength="200.28" waitingTime="32.00" waitingCount="1" stopTime="0.00" timeLoss="41.69" rerouteNo="0" devices="tripinfo_E0__0__car.1 emissions_E0__0__car.1" vType="car" speedFactor="0.96" vaporized="">
        <emissions CO_abs="7380.015798" CO2_abs="174556.276630" HC_abs="37.660456" PMx_abs="3.615589" NOx_abs="75.352629" fuel_abs="55677.769424" electricity_abs="0"/>
    </tripinfo>
    <tripinfo id="E0__0__car.2" depart="53.00" departLane="E0_2" departPos="4.60" departPosLat="0.00" departSpeed="0.00" departDelay="0.87" arrival="111.00" arrivalLane="E2_2" arrivalPos="100.88" arrivalPosLat="0.00" arrivalSpeed="10.44" duration="58.00" routeLength="200.28" waitingTime="27.00" waitingCount="1" stopTime="0.00" timeLoss="39.33" rerouteNo="0" devices="tripinfo_E0__0__car.2 emissions_E0__0__car.2" vType="car" speedFactor="1.09" vaporized="">
        <emissions CO_abs="6739.465026" CO2_abs="158851.223257" HC_abs="34.383951" PMx_abs="3.324032" NOx_abs="68.835224" fuel_abs="50668.341903" electricity_abs="0"/>
    </tripinfo>
    <tripinfo id="E0__1__motorbike.0" depart="80.00" departLane="E0_2" departPos="2.10" departPosLat="0.00" departSpeed="0.00" departDelay="0.72" arrival="112.00" arrivalLane="E2_2" arrivalPos="100.88" arrivalPosLat="-0.45" arrivalSpeed="11.03" duration="32.00" routeLength="202.78" waitingTime="1.00" waitingCount="1" stopTime="0.00" timeLoss="13.69" rerouteNo="0" devices="tripinfo_E0__1__motorbike.0 emissions_E0__1__motorbike.0" vType="motorbike" speedFactor="1.02" vaporized="">
        <emissions CO_abs="3686.339409" CO2_abs="80453.023109" HC_abs="15.225290" PMx_abs="4.625396" NOx_abs="18.589993" fuel_abs="25664.056692" electricity_abs="0"/>
    </tripinfo>
    <tripinfo id="-E1__0__car.1" depart="37.00" departLane="-E1_1" departPos="4.60" departPosLat="0.00" departSpeed="0.00" departDelay="0.21" arrival="113.00" arrivalLane="E6_3" arrivalPos="109.06" arrivalPosLat="0.00" arrivalSpeed="10.53" duration="76.00" routeLength="419.05" waitingTime="24.00" waitingCount="1" stopTime="0.00" timeLoss="37.86" rerouteNo="0" devices="tripinfo_-E1__0__car.1 emissions_-E1__0__car.1" vType="car" speedFactor="1.06" vaporized="">
        <emissions CO_abs="6867.802189" CO2_abs="202694.517203" HC_abs="35.943571" PMx_abs="3.714849" NOx_abs="84.104900" fuel_abs="64652.443090" electricity_abs="0"/>
    </tripinfo>
    <tripinfo id="E0__1__motorbike.1" depart="81.00" departLane="E0_3" departPos="2.10" departPosLat="0.00" departSpeed="0.00" departDelay="0.68" arrival="113.00" arrivalLane="E2_2" arrivalPos="100.88" arrivalPosLat="0.05" arrivalSpeed="10.45" duration="32.00" routeLength="202.78" waitingTime="2.00" waitingCount="1" stopTime="0.00" timeLoss="12.83" rerouteNo="0" devices="tripinfo_E0__1__motorbike.1 emissions_E0__1__motorbike.1" vType="motorbike" speedFactor="1.08" vaporized="">
        <emissions CO_abs="3512.213412" CO2_abs="78111.919049" HC_abs="14.597130" PMx_abs="4.476347" NOx_abs="17.938694" fuel_abs="24917.263796" electricity_abs="0"/>
    </tripinfo>
    <tripinfo id="-E1__0__motorbike.0" depart="41.00" departLane="-E1_1" departPos="2.10" departPosLat="0.00" departSpeed="0.00" departDelay="0.46" arrival="124.00" arrivalLane="-E0_3" arrivalPos="76.80" arrivalPosLat="0.00" arrivalSpeed="10.82" duration="83.00" routeLength="206.22" waitingTime="54.00" waitingCount="1" stopTime="0.00" timeLoss="64.21" rerouteNo="0" devices="tripinfo_-E1__0__motorbike.0 emissions_-E1__0__motorbike.0" vType="motorbike" speedFactor="1.16" vaporized="">
        <emissions CO_abs="12819.540724" CO2_abs="145309.053678" HC_abs="47.994191" PMx_abs="13.176472" NOx_abs="34.873392" fuel_abs="46353.971924" electricity_abs="0"/>
    </tripinfo>
    <tripinfo id="-E4__1__motorbike.1" depart="76.00" departLane="-E4_1" departPos="2.10" departPosLat="0.00" departSpeed="0.00" departDelay="0.32" arrival="127.00" arrivalLane="E6_2" arrivalPos="109.06" arrivalPosLat="-1.05" arrivalSpeed="11.11" duration="51.00" routeLength="234.81" waitingTime="19.00" waitingCount="1" stopTime="0.00" timeLoss="29.63" rerouteNo="0" devices="tripinfo_-E4__1__motorbike.1 emissions_-E4__1__motorbike.1" vType="motorbike" speedFactor="1.09" vaporized="">
        <emissions CO_abs="6683.918889" CO2_abs="107049.855553" HC_abs="26.209852" PMx_abs="7.578071" NOx_abs="25.036407" fuel_abs="34148.646663" electricity_abs="0"/>
    </tripinfo>
    <tripinfo id="-E4__0__motorbike.2" depart="45.00" departLane="-E4_2" departPos="2.10" departPosLat="0.00" departSpeed="0.00" departDelay="0.54" arrival="128.00" arrivalLane="E6_2" arrivalPos="109.06" arrivalPosLat="0.00" arrivalSpeed="10.02" duration="83.00" routeLength="234.81" waitingTime="49.00" waitingCount="1" stopTime="0.00" timeLoss="60.00" rerouteNo="0" devices="tripinfo_-E4__0__motorbike.2 emissions_-E4__0__motorbike.2" vType="motorbike" speedFactor="0.93" vaporized="">
        <emissions CO_abs="12006.458913" CO2_abs="141814.391799" HC_abs="45.057545" PMx_abs="12.361346" NOx_abs="34.194068" fuel_abs="45239.023450" electricity_abs="0"/>
    </tripinfo>
    <tripinfo id="-E1__1__motorbike.1" depart="102.00" departLane="-E1_1" departPos="2.10" departPosLat="0.00" departSpeed="0.00" departDelay="0.70" arrival="130.00" arrivalLane="E2_1" arrivalPos="100.88" arrivalPosLat="0.00" arrivalSpeed="9.87" duration="28.00" routeLength="214.82" waitingTime="0.00" waitingCount="0" stopTime="0.00" timeLoss="4.99" rerouteNo="0" devices="tripinfo_-E1__1__motorbike.1 emissions_-E1__1__motorbike.1" vType="motorbike" speedFactor="0.90" vaporized="">
        <emissions CO_abs="2068.738336" CO2_abs="60269.314515" HC_abs="9.007023" PMx_abs="2.828720" NOx_abs="14.027618" fuel_abs="19225.394053" electricity_abs="0"/>
    </tripinfo>
    <tripinfo id="-E4__1__car.0" depart="107.00" departLane="-E4_3" departPos="4.60" departPosLat="0.00" departSpeed="0.00" departDelay="0.98" arrival="139.00" arrivalLane="E5_1" arrivalPos="146.08" arrivalPosLat="0.00" arrivalSpeed="10.95" duration="32.00" routeLength="251.16" waitingTime="0.00" waitingCount="0" stopTime="0.00" timeLoss="8.16" rerouteNo="0" devices="tripinfo_-E4__1__car.0 emissions_-E4__1__car.0" vType="car" speedFactor="1.22" vaporized="">
        <emissions CO_abs="1819.854004" CO2_abs="91885.296987" HC_abs="10.376855" PMx_abs="1.394062" NOx_abs="36.227121" fuel_abs="29307.705125" electricity_abs="0"/>
    </tripinfo>
    <tripinfo id="-E4__1__motorbike.0" depart="66.00" departLane="-E4_1" departPos="2.10" departPosLat="0.00" departSpeed="0.00" departDelay="0.32" arrival="142.00" arrivalLane="-E0_1" arrivalPos="76.80" arrivalPosLat="0.00" arrivalSpeed="10.41" duration="76.00" routeLength="364.76" waitingTime="29.00" waitingCount="1" stopTime="0.00" timeLoss="41.37" rerouteNo="0" devices="tripinfo_-E4__1__motorbike.0 emissions_-E4__1__motorbike.0" vType="motorbike" speedFactor="0.99" vaporized="">
        <emissions CO_abs="9312.178301" CO2_abs="149681.210923" HC_abs="36.430691" PMx_abs="10.459958" NOx_abs="35.294511" fuel_abs="47747.875863" electricity_abs="0"/>
    </tripinfo>
    <tripinfo id="-E2__1__motorbike.0" depart="96.00" departLane="-E2_1" departPos="2.10" departPosLat="0.00" departSpeed="0.00" departDelay="0.09" arrival="142.00" arrivalLane="-E0_2" arrivalPos="76.80" arrivalPosLat="0.45" arrivalSpeed="10.82" duration="46.00" routeLength="202.78" waitingTime="17.00" waitingCount="1" stopTime="0.00" timeLoss="27.47" rerouteNo="0" devices="tripinfo_-E2__1__motorbike.0 emissions_-E2__1__motorbike.0" vType="motorbike" speedFactor="1.14" vaporized="">
        <emissions CO_abs="6181.355272" CO2_abs="98184.335836" HC_abs="24.232171" PMx_abs="7.015215" NOx_abs="22.909637" fuel_abs="31320.594497" electricity_abs="0"/>
    </tripinfo>
    <tripinfo id="-E2__1__motorbike.1" depart="109.00" departLane="-E2_1" departPos="2.10" departPosLat="0.00" departSpeed="0.00" departDelay="0.77" arrival="142.00" arrivalLane="-E0_2" arrivalPos="76.80" arrivalPosLat="-1.05" arrivalSpeed="10.41" duration="33.00" routeLength="202.78" waitingTime="0.00" waitingCount="0" stopTime="0.00" timeLoss="14.36" rerouteNo="0" devices="tripinfo_-E2__1__motorbike.1 emissions_-E2__1__motorbike.1" vType="motorbike" speedFactor="0.99" vaporized="">
        <emissions CO_abs="3560.058341" CO2_abs="80403.799133" HC_abs="14.774243" PMx_abs="4.497304" NOx_abs="18.621677" fuel_abs="25648.322043" electricity_abs="0"/>
    </tripinfo>
    <tripinfo id="-E5__1__motorbike.2" depart="84.00" departLane="-E5_1" departPos="2.10" departPosLat="0.00" departSpeed="0.00" departDelay="0.65" arrival="144.00" arrivalLane="E4_3" arrivalPos="100.65" arrivalPosLat="0.00" arrivalSpeed="10.53" duration="60.00" routeLength="269.14" waitingTime="25.00" waitingCount="1" stopTime="0.00" timeLoss="35.69" rerouteNo="0" devices="tripinfo_-E5__1__motorbike.2 emissions_-E5__1__motorbike.2" vType="motorbike" speedFactor="1.10" vaporized="">
        <emissions CO_abs="7758.744077" CO2_abs="119016.848888" HC_abs="30.130759" PMx_abs="8.578668" NOx_abs="28.175275" fuel_abs="37966.091859" electricity_abs="0"/>
    </tripinfo>
    <tripinfo id="-E2__1__car.0" depart="117.00" departLane="-E2_2" departPos="4.60" departPosLat="0.00" departSpeed="0.00" departDelay="0.85" arrival="149.00" arrivalLane="E1_3" arrivalPos="107.01" arrivalPosLat="0.00" arrivalSpeed="8.26" duration="32.00" routeLength="227.80" waitingTime="0.00" waitingCount="0" stopTime="0.00" timeLoss="4.75" rerouteNo="0" devices="tripinfo_-E2__1__car.0 emissions_-E2__1__car.0" vType="car" speedFactor="0.78" vaporized="">
        <emissions CO_abs="1703.975649" CO2_abs="74926.781837" HC_abs="9.455331" PMx_abs="1.102625" NOx_abs="29.614880" fuel_abs="23898.770666" electricity_abs="0"/>
    </tripinfo>
    <tripinfo id="-E5__2__car.0" depart="125.00" departLane="-E5_2" departPos="4.60" departPosLat="0.00" departSpeed="0.00" departDelay="0.46" arrival="157.00" arrivalLane="E4_3" arrivalPos="100.65" arrivalPosLat="0.00" arrivalSpeed="9.70" duration="32.00" routeLength="266.64" waitingTime="0.00" waitingCount="0" stopTime="0.00" timeLoss="5.57" rerouteNo="0" devices="tripinfo_-E5__2__car.0 emissions_-E5__2__car.0" vType="car" speedFactor="0.93" vaporized="">
        <emissions CO_abs="1508.639119" CO2_abs="76659.690398" HC_abs="8.607352" PMx_abs="1.086871" NOx_abs="29.832497" fuel_abs="24451.415305" electricity_abs="0"/>
    </tripinfo>
    <tripinfo id="-E6__1__motorbike.0" depart="112.00" departLane="-E6_1" departPos="2.10" departPosLat="0.00" departSpeed="0.00" departDelay="0.48" arrival="158.00" arrivalLane="-E0_1" arrivalPos="76.80" arrivalPosLat="0.00" arrivalSpeed="9.65" duration="46.00" routeLength="357.69" waitingTime="0.00" waitingCount="0" stopTime="0.00" timeLoss="7.29" rerouteNo="0" devices="tripinfo_-E6__1__motorbike.0 emissions_-E6__1__motorbike.0" vType="motorbike" speedFactor="0.88" vaporized="">
        <emissions CO_abs="3069.936607" CO2_abs="94553.744492" HC_abs="13.504299" PMx_abs="4.256522" NOx_abs="22.087910" fuel_abs="30161.773329" electricity_abs="0"/>
    </tripinfo>
    <tripinfo id="-E5__1__motorbike.1" depart="77.00" departLane="-E5_2" departPos="2.10" departPosLat="0.00" departSpeed="0.00" departDelay="0.25" arrival="162.00" arrivalLane="E1_2" arrivalPos="107.01" arrivalPosLat="0.00" arrivalSpeed="10.93" duration="85.00" routeLength="461.26" waitingTime="33.00" waitingCount="1" stopTime="0.00" timeLoss="43.45" rerouteNo="0" devices="tripinfo_-E5__1__motorbike.1 emissions_-E5__1__motorbike.1" vType="motorbike" speedFactor="1.08" vaporized="">
        <emissions CO_abs="9594.243401" CO2_abs="160205.950998" HC_abs="37.547023" PMx_abs="10.685574" NOx_abs="38.270534" fuel_abs="51105.015747" electricity_abs="0"/>
    </tripinfo>
    <tripinfo id="-E5__1__motorbike.0" depart="61.00" departLane="-E5_3" departPos="2.10" departPosLat="0.00" departSpeed="0.00" departDelay="0.16" arrival="163.00" arrivalLane="E2_3" arrivalPos="100.88" arrivalPosLat="0.00" arrivalSpeed="11.02" duration="102.00" routeLength="452.44" waitingTime="48.00" waitingCount="1" stopTime="0.00" timeLoss="60.48" rerouteNo="0" devices="tripinfo_-E5__1__motorbike.0 emissions_-E5__1__motorbike.0" vType="motorbike" speedFactor="1.05" vaporized="">
        <emissions CO_abs="12877.694612" CO2_abs="188775.212157" HC_abs="49.658816" PMx_abs="14.013376" NOx_abs="44.934627" fuel_abs="60218.907244" electricity_abs="0"/>
    </tripinfo>
    <tripinfo id="-E6__1__motorbike.1" depart="114.00" departLane="-E6_2" departPos="2.10" departPosLat="0.00" departSpeed="0.00" departDelay="0.55" arrival="163.00" arrivalLane="E4_2" arrivalPos="100.65" arrivalPosLat="0.00" arrivalSpeed="10.01" duration="49.00" routeLength="234.81" waitingTime="15.00" waitingCount="1" stopTime="0.00" timeLoss="26.49" rerouteNo="0" devices="tripinfo_-E6__1__motorbike.1 emissions_-E6__1__motorbike.1" vType="motorbike" speedFactor="0.96" vaporized="">
        <emissions CO_abs="6018.756525" CO2_abs="98969.454357" HC_abs="23.643927" PMx_abs="6.829660" NOx_abs="23.239602" fuel_abs="31570.975890" electricity_abs="0"/>
    </tripinfo>
    <tripinfo id="-E6__2__car.0" depart="121.00" departLane="-E6_3" departPos="4.60" departPosLat="0.00" departSpeed="0.00" departDelay="0.97" arrival="167.00" arrivalLane="E5_3" arrivalPos="146.08" arrivalPosLat="0.00" arrivalSpeed="10.81" duration="46.00" routeLength="275.05" waitingTime="8.00" waitingCount="1" stopTime="0.00" timeLoss="20.79" rerouteNo="0" devices="tripinfo_-E6__2__car.0 emissions_-E6__2__car.0" vType="car" speedFactor="1.06" vaporized="">
        <emissions CO_abs="3797.110689" CO2_abs="126281.523433" HC_abs="20.209923" PMx_abs="2.297850" NOx_abs="52.462190" fuel_abs="40279.075916" electricity_abs="0"/>
    </tripinfo>
    <tripinfo id="E0__2__motorbike.1" depart="154.00" departLane="E0_1" departPos="2.10" departPosLat="0.00" departSpeed="0.00" departDelay="0.34" arrival="179.00" arrivalLane="E1_1" arrivalPos="107.01" arrivalPosLat="0.00" arrivalSpeed="10.45" duration="25.00" routeLength="190.74" waitingTime="0.00" waitingCount="0" stopTime="0.00" timeLoss="6.38" rerouteNo="0" devices="tripinfo_E0__2__motorbike.1 emissions_E0__2__motorbike.1" vType="motorbike" speedFactor="0.97" vaporized="">
        <emissions CO_abs="2335.954659" CO2_abs="63127.734056" HC_abs="10.117952" PMx_abs="3.215097" NOx_abs="14.424243" fuel_abs="20137.283935" electricity_abs="0"/>
    </tripinfo>
    <tripinfo id="-E1__1__motorbike.0" depart="71.00" departLane="-E1_1" departPos="2.10" departPosLat="0.00" departSpeed="0.00" departDelay="0.18" arrival="181.00" arrivalLane="E6_3" arrivalPos="109.06" arrivalPosLat="0.00" arrivalSpeed="10.50" duration="110.00" routeLength="421.55" waitingTime="54.00" waitingCount="2" stopTime="0.00" timeLoss="71.97" rerouteNo="0" devices="tripinfo_-E1__1__motorbike.0 emissions_-E1__1__motorbike.0" vType="motorbike" speedFactor="1.09" vaporized="">
        <emissions CO_abs="15113.219068" CO2_abs="202270.975753" HC_abs="57.717280" PMx_abs="16.192301" NOx_abs="48.014380" fuel_abs="64524.405332" electricity_abs="0"/>
    </tripinfo>
    <tripinfo id="E0__2__motorbike.0" depart="128.00" departLane="E0_3" departPos="2.10" departPosLat="0.00" departSpeed="0.00" departDelay="0.05" arrival="181.00" arrivalLane="E2_2" arrivalPos="100.88" arrivalPosLat="0.00" arrivalSpeed="10.53" duration="53.00" routeLength="202.78" waitingTime="24.00" waitingCount="1" stopTime="0.00" timeLoss="34.07" rerouteNo="0" devices="tripinfo_E0__2__motorbike.0 emissions_E0__2__motorbike.0" vType="motorbike" speedFactor="1.05" vaporized="">
        <emissions CO_abs="7441.351955" CO2_abs="106413.766796" HC_abs="28.730596" PMx_abs="8.183484" NOx_abs="24.986343" fuel_abs="33945.911168" electricity_abs="0"/>
    </tripinfo>
    <tripinfo id="E0__1__motorbike.2" depart="87.00" departLane="E0_1" departPos="2.10" departPosLat="0.00" departSpeed="0.00" departDelay="0.05" arrival="185.00" arrivalLane="E5_2" arrivalPos="146.08" arrivalPosLat="0.00" arrivalSpeed="10.65" duration="98.00" routeLength="428.36" waitingTime="46.00" waitingCount="1" stopTime="0.00" timeLoss="58.58" rerouteNo="0" devices="tripinfo_E0__1__motorbike.2 emissions_E0__1__motorbike.2" vType="motorbike" speedFactor="1.12" vaporized="">
        <emissions CO_abs="12220.931979" CO2_abs="176427.824887" HC_abs="46.987604" PMx_abs="13.203469" NOx_abs="42.129335" fuel_abs="56280.143208" electricity_abs="0"/>
    </tripinfo>
    <tripinfo id="-E1__1__car.0" depart="68.00" departLane="-E1_3" departPos="4.60" departPosLat="0.00" departSpeed="0.00" departDelay="0.29" arrival="188.00" arrivalLane="E5_2" arrivalPos="146.08" arrivalPosLat="0.00" arrivalSpeed="9.63" duration="120.00" routeLength="458.76" waitingTime="57.00" waitingCount="2" stopTime="0.00" timeLoss="73.59" rerouteNo="0" devices="tripinfo_-E1__1__car.0 emissions_-E1__1__car.0" vType="car" speedFactor="0.91" vaporized="">
        <emissions CO_abs="13131.033622" CO2_abs="310482.044793" HC_abs="66.973328" PMx_abs="6.260453" NOx_abs="132.851382" fuel_abs="99033.867365" electricity_abs="0"/>
    </tripinfo>
    <tripinfo id="E0__2__motorbike.2" depart="167.00" departLane="E0_1" departPos="2.10" departPosLat="0.00" departSpeed="0.00" departDelay="0.98" arrival="192.00" arrivalLane="E2_2" arrivalPos="100.88" arrivalPosLat="0.00" arrivalSpeed="10.59" duration="25.00" routeLength="202.78" waitingTime="0.00" waitingCount="0" stopTime="0.00" timeLoss="5.16" rerouteNo="0" devices="tripinfo_E0__2__motorbike.2 emissions_E0__2__motorbike.2" vType="motorbike" speedFactor="0.97" vaporized="">
        <emissions CO_abs="1815.909168" CO2_abs="54761.844169" HC_abs="7.938244" PMx_abs="2.480827" NOx_abs="12.839284" fuel_abs="17468.502674" electricity_abs="0"/>
    </tripinfo>
    <tripinfo id="-E1__2__car.0" depart="126.00" departLane="-E1_3" departPos="4.60" departPosLat="0.00" departSpeed="0.00" departDelay="0.01" arrival="197.00" arrivalLane="-E0_3" arrivalPos="76.80" arrivalPosLat="0.00" arrivalSpeed="11.03" duration="71.00" routeLength="203.72" waitingTime="39.00" waitingCount="1" stopTime="0.00" timeLoss="51.66" rerouteNo="0" devices="tripinfo_-E1__2__car.0 emissions_-E1__2__car.0" vType="car" speedFactor="1.01" vaporized="">
        <emissions CO_abs="8792.080131" CO2_abs="196594.824349" HC_abs="44.607949" PMx_abs="4.202468" NOx_abs="85.604197" fuel_abs="62707.519541" electricity_abs="0"/>
    </tripinfo>