<?xml version="1.0" encoding="UTF-8"?>

<!-- generated on 2026-06-21 13:11:09 by Eclipse SUMO GUI Version 1.18.0
<configuration xmlns:xsi="http://www.w3.org/2001/XMLSchema-instance" xsi:noNamespaceSchemaLocation="http://sumo.dlr.de/xsd/sumoConfiguration.xsd">

    <input>
        <net-file value="Scenario/test/env/test.net.xml"/>
        <route-files value="Scenario/test/env/../routes/vehicle.rou.xml"/>
        <additional-files value="Scenario/test/env/../add/tls.add.xml,Scenario/test/env/ ../add/e2.add.xml"/>
    </input>

    <output>
        <netstate-dump value="Scenario/test/env/../output/e2.netstate.xml"/>
        <netstate-dump.precision value="2"/>
        <summary-output value="Scenario/test/env/../output/e2_summary.output.xml"/>
        <tripinfo-output value="/home/hoanganh/Project/TSC-CoLight/deploy_test_medium.tripinfo.xml"/>
        <tripinfo-output.write-unfinished value="true"/>
    </output>

    <time>
        <begin value="0"/>
        <end value="500"/>
        <step-length value="1.0"/>
    </time>

    <processing>
        <lateral-resolution value="0.2"/>
        <time-to-teleport value="-1"/>
        <waiting-time-memory value="10000"/>
        <max-depart-delay value="100000"/>
    </processing>

    <report>
        <no-warnings value="true"/>
        <no-step-log value="true"/>
    </report>

    <emissions>
        <device.emissions.probability value="1.0"/>
    </emissions>

    <traci_server>
        <remote-port value="44163"/>
    </traci_server>

    <random_number>
        <random value="true"/>
    </random_number>

    <gui_only>
        <quit-on-end value="true"/>
        <start value="true"/>
    </gui_only>

</configuration>
-->

<tripinfos xmlns:xsi="http://www.w3.org/2001/XMLSchema-instance" xsi:noNamespaceSchemaLocation="http://sumo.dlr.de/xsd/tripinfo_file.xsd">
    <tripinfo id="-E4__0__car.0" depart="1.00" departLane="-E4_3" departPos="4.60" departPosLat="0.00" departSpeed="0.00" departDelay="0.97" arrival="33.00" arrivalLane="E5_1" arrivalPos="146.08" arrivalPosLat="0.00" arrivalSpeed="10.49" duration="32.00" routeLength="251.16" waitingTime="0.00" waitingCount="0" stopTime="0.00" timeLoss="6.94" rerouteNo="0" devices="tripinfo_-E4__0__car.0 emissions_-E4__0__car.0" vType="car" speedFactor="0.95" vaporized="">
        <emissions CO_abs="1798.398845" CO2_abs="85910.664468" HC_abs="10.158398" PMx_abs="1.356340" NOx_abs="34.423639" fuel_abs="27402.014926" electricity_abs="0"/>
    </tripinfo>
    <tripinfo id="-E6__0__car.0" depart="2.00" departLane="-E6_1" departPos="4.60" departPosLat="0.00" departSpeed="0.00" departDelay="0.28" arrival="34.00" arrivalLane="E5_3" arrivalPos="146.08" arrivalPosLat="0.00" arrivalSpeed="10.43" duration="32.00" routeLength="275.05" waitingTime="0.00" waitingCount="0" stopTime="0.00" timeLoss="6.55" rerouteNo="0" devices="tripinfo_-E6__0__car.0 emissions_-E6__0__car.0" vType="car" speedFactor="0.99" vaporized="">
        <emissions CO_abs="1645.619307" CO2_abs="83586.070300" HC_abs="9.417178" PMx_abs="1.338906" NOx_abs="33.560627" fuel_abs="26660.480124" electricity_abs="0"/>
    </tripinfo>
    <tripinfo id="E0__0__motorbike.0" depart="4.00" departLane="E0_2" departPos="2.10" departPosLat="0.00" departSpeed="0.00" departDelay="0.42" arrival="37.00" arrivalLane="E2_2" arrivalPos="100.88" arrivalPosLat="0.00" arrivalSpeed="10.21" duration="33.00" routeLength="202.78" waitingTime="3.00" waitingCount="1" stopTime="0.00" timeLoss="13.97" rerouteNo="0" devices="tripinfo_E0__0__motorbike.0 emissions_E0__0__motorbike.0" vType="motorbike" speedFactor="0.98" vaporized="">
        <emissions CO_abs="3714.794240" CO2_abs="81397.354250" HC_abs="15.317805" PMx_abs="4.633188" NOx_abs="18.890120" fuel_abs="25965.283502" electricity_abs="0"/>
    </tripinfo>
    <tripinfo id="-E1__0__motorbike.0" depart="8.00" departLane="-E1_1" departPos="2.10" departPosLat="0.00" departSpeed="0.00" departDelay="1.46" arrival="37.00" arrivalLane="E2_1" arrivalPos="100.88" arrivalPosLat="0.00" arrivalSpeed="10.03" duration="29.00" routeLength="214.82" waitingTime="0.00" waitingCount="0" stopTime="0.00" timeLoss="7.73" rerouteNo="0" devices="tripinfo_-E1__0__motorbike.0 emissions_-E1__0__motorbike.0" vType="motorbike" speedFactor="0.96" vaporized="">
        <emissions CO_abs="2620.493559" CO2_abs="71469.416553" HC_abs="11.296207" PMx_abs="3.544001" NOx_abs="16.516520" fuel_abs="22798.186981" electricity_abs="0"/>
    </tripinfo>
    <tripinfo id="-E1__0__motorbike.2" depart="9.00" departLane="-E1_2" departPos="2.10" departPosLat="0.00" departSpeed="0.00" departDelay="1.29" arrival="38.00" arrivalLane="E2_1" arrivalPos="100.88" arrivalPosLat="0.00" arrivalSpeed="10.77" duration="29.00" routeLength="214.82" waitingTime="0.00" waitingCount="0" stopTime="0.00" timeLoss="8.73" rerouteNo="0" devices="tripinfo_-E1__0__motorbike.2 emissions_-E1__0__motorbike.2" vType="motorbike" speedFactor="1.09" vaporized="">
        <emissions CO_abs="2707.857198" CO2_abs="71706.813375" HC_abs="11.662886" PMx_abs="3.682774" NOx_abs="16.424284" fuel_abs="22873.949389" electricity_abs="0"/>
    </tripinfo>
    <tripinfo id="E0__0__motorbike.1" depart="11.00" departLane="E0_1" departPos="2.10" departPosLat="0.00" departSpeed="0.00" departDelay="0.12" arrival="39.00" arrivalLane="E2_2" arrivalPos="100.88" arrivalPosLat="0.00" arrivalSpeed="10.92" duration="28.00" routeLength="202.78" waitingTime="0.00" waitingCount="0" stopTime="0.00" timeLoss="8.80" rerouteNo="0" devices="tripinfo_E0__0__motorbike.1 emissions_E0__0__motorbike.1" vType="motorbike" speedFactor="1.02" vaporized="">
        <emissions CO_abs="2592.649158" CO2_abs="72262.033068" HC_abs="11.280787" PMx_abs="3.584091" NOx_abs="16.579389" fuel_abs="23051.020223" electricity_abs="0"/>
    </tripinfo>
    <tripinfo id="-E4__0__car.1" depart="10.00" departLane="-E4_1" departPos="4.60" departPosLat="0.00" departSpeed="0.00" departDelay="0.69" arrival="42.00" arrivalLane="E5_2" arrivalPos="146.08" arrivalPosLat="0.00" arrivalSpeed="10.52" duration="32.00" routeLength="251.16" waitingTime="0.00" waitingCount="0" stopTime="0.00" timeLoss="8.11" rerouteNo="0" devices="tripinfo_-E4__0__car.1 emissions_-E4__0__car.1" vType="car" speedFactor="1.01" vaporized="">
        <emissions CO_abs="1804.791997" CO2_abs="85229.410150" HC_abs="10.185547" PMx_abs="1.418170" NOx_abs="34.600970" fuel_abs="27184.654718" electricity_abs="0"/>
    </tripinfo>
    <tripinfo id="E0__0__motorbike.3" depart="16.00" departLane="E0_1" departPos="2.10" departPosLat="0.00" departSpeed="0.00" departDelay="0.07" arrival="42.00" arrivalLane="E1_1" arrivalPos="107.01" arrivalPosLat="0.00" arrivalSpeed="10.42" duration="26.00" routeLength="190.74" waitingTime="0.00" waitingCount="0" stopTime="0.00" timeLoss="7.29" rerouteNo="0" devices="tripinfo_E0__0__motorbike.3 emissions_E0__0__motorbike.3" vType="motorbike" speedFactor="0.99" vaporized="">
        <emissions CO_abs="2525.003455" CO2_abs="67198.767916" HC_abs="10.914099" PMx_abs="3.468036" NOx_abs="15.323920" fuel_abs="21435.926640" electricity_abs="0"/>
    </tripinfo>
    <tripinfo id="E0__0__motorbike.2" depart="13.00" departLane="E0_2" departPos="2.10" departPosLat="0.00" departSpeed="0.00" departDelay="1.97" arrival="43.00" arrivalLane="E2_2" arrivalPos="100.88" arrivalPosLat="0.00" arrivalSpeed="8.15" duration="30.00" routeLength="202.78" waitingTime="0.00" waitingCount="0" stopTime="0.00" timeLoss="5.37" rerouteNo="0" devices="tripinfo_E0__0__motorbike.2 emissions_E0__0__motorbike.2" vType="motorbike" speedFactor="0.77" vaporized="">
        <emissions CO_abs="2003.222053" CO2_abs="54129.668137" HC_abs="8.503689" PMx_abs="2.592987" NOx_abs="12.766686" fuel_abs="17266.933017" electricity_abs="0"/>
    </tripinfo>
    <tripinfo id="-E5__0__motorbike.1" depart="12.00" departLane="-E5_2" departPos="2.10" departPosLat="0.00" departSpeed="0.00" departDelay="0.74" arrival="48.00" arrivalLane="E6_1" arrivalPos="109.06" arrivalPosLat="0.00" arrivalSpeed="8.38" duration="36.00" routeLength="262.07" waitingTime="0.00" waitingCount="0" stopTime="0.00" timeLoss="6.04" rerouteNo="0" devices="tripinfo_-E5__0__motorbike.1 emissions_-E5__0__motorbike.1" vType="motorbike" speedFactor="0.81" vaporized="">
        <emissions CO_abs="2378.991149" CO2_abs="66084.651315" HC_abs="10.205899" PMx_abs="3.155430" NOx_abs="15.475871" fuel_abs="21080.466588" electricity_abs="0"/>
    </tripinfo>
    <tripinfo id="E0__0__motorbike.4" depart="18.00" departLane="E0_2" departPos="2.10" departPosLat="0.00" departSpeed="0.00" departDelay="0.63" arrival="49.00" arrivalLane="E1_1" arrivalPos="107.01" arrivalPosLat="0.00" arrivalSpeed="7.84" duration="31.00" routeLength="190.74" waitingTime="0.00" waitingCount="0" stopTime="0.00" timeLoss="5.76" rerouteNo="0" devices="tripinfo_E0__0__motorbike.4 emissions_E0__0__motorbike.4" vType="motorbike" speedFactor="0.72" vaporized="">
        <emissions CO_abs="2295.472166" CO2_abs="54346.183740" HC_abs="9.493165" PMx_abs="2.840743" NOx_abs="12.822668" fuel_abs="17336.081194" electricity_abs="0"/>
    </tripinfo>
    <tripinfo id="-E1__0__motorbike.5" depart="20.00" departLane="-E1_1" departPos="2.10" departPosLat="0.00" departSpeed="0.00" departDelay="0.72" arrival="50.00" arrivalLane="E2_1" arrivalPos="100.88" arrivalPosLat="0.00" arrivalSpeed="9.04" duration="30.00" routeLength="214.82" waitingTime="0.00" waitingCount="0" stopTime="0.00" timeLoss="6.53" rerouteNo="0" devices="tripinfo_-E1__0__motorbike.5 emissions_-E1__0__motorbike.5" vType="motorbike" speedFactor="0.88" vaporized="">
        <emissions CO_abs="2359.999503" CO2_abs="67344.574557" HC_abs="10.152946" PMx_abs="3.129062" NOx_abs="15.852418" fuel_abs="21482.331928" electricity_abs="0"/>
    </tripinfo>
    <tripinfo id="-E1__0__motorbike.7" depart="27.00" departLane="-E1_1" departPos="2.10" departPosLat="0.00" departSpeed="0.00" departDelay="0.05" arrival="54.00" arrivalLane="E2_1" arrivalPos="100.88" arrivalPosLat="0.00" arrivalSpeed="10.60" duration="27.00" routeLength="214.82" waitingTime="0.00" waitingCount="0" stopTime="0.00" timeLoss="6.62" rerouteNo="0" devices="tripinfo_-E1__0__motorbike.7 emissions_-E1__0__motorbike.7" vType="motorbike" speedFactor="1.11" vaporized="">
        <emissions CO_abs="2529.399507" CO2_abs="69354.962427" HC_abs="11.029156" PMx_abs="3.534423" NOx_abs="15.771116" fuel_abs="22123.709352" electricity_abs="0"/>
    </tripinfo>
    <tripinfo id="-E4__0__motorbike.0" depart="5.00" departLane="-E4_2" departPos="2.10" departPosLat="0.00" departSpeed="0.00" departDelay="0.46" arrival="56.00" arrivalLane="E6_2" arrivalPos="109.06" arrivalPosLat="0.00" arrivalSpeed="10.40" duration="51.00" routeLength="234.81" waitingTime="18.00" waitingCount="1" stopTime="0.00" timeLoss="29.53" rerouteNo="0" devices="tripinfo_-E4__0__motorbike.0 emissions_-E4__0__motorbike.0" vType="motorbike" speedFactor="1.01" vaporized="">
        <emissions CO_abs="6700.050794" CO2_abs="109149.950949" HC_abs="26.266978" PMx_abs="7.562514" NOx_abs="25.689940" fuel_abs="34818.518526" electricity_abs="0"/>
    </tripinfo>
    <tripinfo id="-E4__0__motorbike.1" depart="26.00" departLane="-E4_2" departPos="2.10" departPosLat="0.00" departSpeed="0.00" departDelay="0.78" arrival="56.00" arrivalLane="E5_1" arrivalPos="146.08" arrivalPosLat="0.00" arrivalSpeed="10.99" duration="30.00" routeLength="253.66" waitingTime="0.00" waitingCount="0" stopTime="0.00" timeLoss="6.45" rerouteNo="0" devices="tripinfo_-E4__0__motorbike.1 emissions_-E4__0__motorbike.1" vType="motorbike" speedFactor="1.10" vaporized="">
        <emissions CO_abs="2451.414361" CO2_abs="70925.826827" HC_abs="10.732125" PMx_abs="3.411700" NOx_abs="16.345653" fuel_abs="22624.734595" electricity_abs="0"/>
    </tripinfo>
    <tripinfo id="-E4__0__motorbike.2" depart="27.00" departLane="-E4_1" departPos="2.10" departPosLat="0.00" departSpeed="0.00" departDelay="0.77" arrival="58.00" arrivalLane="E6_2" arrivalPos="109.06" arrivalPosLat="0.00" arrivalSpeed="10.99" duration="31.00" routeLength="234.81" waitingTime="0.00" waitingCount="0" stopTime="0.00" timeLoss="9.21" rerouteNo="0" devices="tripinfo_-E4__0__motorbike.2 emissions_-E4__0__motorbike.2" vType="motorbike" speedFactor="1.11" vaporized="">
        <emissions CO_abs="2742.193071" CO2_abs="76075.269856" HC_abs="11.928214" PMx_abs="3.791834" NOx_abs="17.437982" fuel_abs="24267.414327" electricity_abs="0"/>
    </tripinfo>
    <tripinfo id="-E2__0__motorbike.3" depart="16.00" departLane="-E2_1" departPos="2.10" departPosLat="0.00" departSpeed="0.00" departDelay="0.32" arrival="60.00" arrivalLane="E4_1" arrivalPos="100.65" arrivalPosLat="0.00" arrivalSpeed="10.39" duration="44.00" routeLength="373.36" waitingTime="0.00" waitingCount="0" stopTime="0.00" timeLoss="8.66" rerouteNo="0" devices="tripinfo_-E2__0__motorbike.3 emissions_-E2__0__motorbike.3" vType="motorbike" speedFactor="1.06" vaporized="">
        <emissions CO_abs="3392.010549" CO2_abs="103543.489397" HC_abs="15.086139" PMx_abs="4.870610" NOx_abs="23.741381" fuel_abs="33029.455249" electricity_abs="0"/>
    </tripinfo>
    <tripinfo id="-E4__0__motorbike.3" depart="28.00" departLane="-E4_3" departPos="2.10" departPosLat="0.00" departSpeed="0.00" departDelay="1.60" arrival="61.00" arrivalLane="E6_2" arrivalPos="109.06" arrivalPosLat="0.00" arrivalSpeed="9.74" duration="33.00" routeLength="234.81" waitingTime="1.00" waitingCount="1" stopTime="0.00" timeLoss="9.52" rerouteNo="0" devices="tripinfo_-E4__0__motorbike.3 emissions_-E4__0__motorbike.3" vType="motorbike" speedFactor="0.93" vaporized="">
        <emissions CO_abs="2947.720659" CO2_abs="73332.075464" HC_abs="12.396268" PMx_abs="3.785963" NOx_abs="17.127111" fuel_abs="23392.398577" electricity_abs="0"/>
    </tripinfo>
    <tripinfo id="E0__0__motorbike.8" depart="37.00" departLane="E0_2" departPos="2.10" departPosLat="0.00" departSpeed="0.00" departDelay="0.21" arrival="62.00" arrivalLane="E1_1" arrivalPos="107.01" arrivalPosLat="0.00" arrivalSpeed="10.75" duration="25.00" routeLength="190.74" waitingTime="0.00" waitingCount="0" stopTime="0.00" timeLoss="6.72" rerouteNo="0" devices="tripinfo_E0__0__motorbike.8 emissions_E0__0__motorbike.8" vType="motorbike" speedFactor="1.06" vaporized="">
        <emissions CO_abs="2300.672716" CO2_abs="64488.134901" HC_abs="10.056026" PMx_abs="3.219193" NOx_abs="14.719385" fuel_abs="20571.213339" electricity_abs="0"/>
    </tripinfo>
    <tripinfo id="-E4__0__motorbike.4" depart="31.00" departLane="-E4_1" departPos="2.10" departPosLat="0.00" departSpeed="0.00" departDelay="0.11" arrival="64.00" arrivalLane="E6_2" arrivalPos="109.06" arrivalPosLat="0.00" arrivalSpeed="10.90" duration="33.00" routeLength="234.81" waitingTime="0.00" waitingCount="0" stopTime="0.00" timeLoss="11.82" rerouteNo="0" devices="tripinfo_-E4__0__motorbike.4 emissions_-E4__0__motorbike.4" vType="motorbike" speedFactor="1.10" vaporized="">
        <emissions CO_abs="3048.315015" CO2_abs="78733.268775" HC_abs="12.939016" PMx_abs="3.988060" NOx_abs="18.326712" fuel_abs="25115.309986" electricity_abs="0"/>
    </tripinfo>
    <tripinfo id="-E1__0__car.1" depart="36.00" departLane="-E1_1" departPos="4.60" departPosLat="0.00" departSpeed="0.00" departDelay="0.09" arrival="65.00" arrivalLane="E2_1" arrivalPos="100.88" arrivalPosLat="0.00" arrivalSpeed="9.56" duration="29.00" routeLength="212.32" waitingTime="0.00" waitingCount="0" stopTime="0.00" timeLoss="6.17" rerouteNo="0" devices="tripinfo_-E1__0__car.1 emissions_-E1__0__car.1" vType="car" speedFactor="0.86" vaporized="">
        <emissions CO_abs="1683.624882" CO2_abs="73915.888550" HC_abs="9.358800" PMx_abs="1.185965" NOx_abs="29.839796" fuel_abs="23576.225577" electricity_abs="0"/>
    </tripinfo>
    <tripinfo id="-E4__0__motorbike.5" depart="32.00" departLane="-E4_2" departPos="2.10" departPosLat="0.00" departSpeed="0.00" departDelay="0.92" arrival="66.00" arrivalLane="E5_2" arrivalPos="146.08" arrivalPosLat="0.00" arrivalSpeed="10.40" duration="34.00" routeLength="253.66" waitingTime="0.00" waitingCount="0" stopTime="0.00" timeLoss="9.92" rerouteNo="0" devices="tripinfo_-E4__0__motorbike.5 emissions_-E4__0__motorbike.5" vType="motorbike" speedFactor="1.03" vaporized="">
        <emissions CO_abs="2887.212273" CO2_abs="79077.516858" HC_abs="12.474915" PMx_abs="3.926348" NOx_abs="18.240565" fuel_abs="25225.106412" electricity_abs="0"/>
    </tripinfo>
    <tripinfo id="E0__0__motorbike.9" depart="41.00" departLane="E0_1" departPos="2.10" departPosLat="0.00" departSpeed="0.00" departDelay="0.46" arrival="66.00" arrivalLane="E1_1" arrivalPos="107.01" arrivalPosLat="0.00" arrivalSpeed="10.78" duration="25.00" routeLength="190.74" waitingTime="0.00" waitingCount="0" stopTime="0.00" timeLoss="6.97" rerouteNo="0" devices="tripinfo_E0__0__motorbike.9 emissions_E0__0__motorbike.9" vType="motorbike" speedFactor="1.02" vaporized="">
        <emissions CO_abs="2529.158247" CO2_abs="72665.940538" HC_abs="11.077558" PMx_abs="3.533981" NOx_abs="16.684554" fuel_abs="23179.835238" electricity_abs="0"/>
    </tripinfo>
    <tripinfo id="-E1__0__motorbike.8" depart="41.00" departLane="-E1_1" departPos="2.10" departPosLat="0.00" departSpeed="0.00" departDelay="0.15" arrival="68.00" arrivalLane="E2_1" arrivalPos="100.88" arrivalPosLat="0.00" arrivalSpeed="11.06" duration="27.00" routeLength="214.82" waitingTime="0.00" waitingCount="0" stopTime="0.00" timeLoss="6.84" rerouteNo="0" devices="tripinfo_-E1__0__motorbike.8 emissions_-E1__0__motorbike.8" vType="motorbike" speedFactor="1.03" vaporized="">
        <emissions CO_abs="2540.844821" CO2_abs="71029.030256" HC_abs="11.092394" PMx_abs="3.544824" NOx_abs="16.228228" fuel_abs="22657.706693" electricity_abs="0"/>
    </tripinfo>
    <tripinfo id="-E1__0__motorbike.9" depart="43.00" departLane="-E1_1" departPos="2.10" departPosLat="0.00" departSpeed="0.00" departDelay="1.70" arrival="70.00" arrivalLane="E2_1" arrivalPos="100.88" arrivalPosLat="0.00" arrivalSpeed="10.78" duration="27.00" routeLength="214.82" waitingTime="0.00" waitingCount="0" stopTime="0.00" timeLoss="6.52" rerouteNo="0" devices="tripinfo_-E1__0__motorbike.9 emissions_-E1__0__motorbike.9" vType="motorbike" speedFactor="1.03" vaporized="">
        <emissions CO_abs="2331.946155" CO2_abs="64836.414565" HC_abs="10.136800" PMx_abs="3.215593" NOx_abs="14.891366" fuel_abs="20682.301914" electricity_abs="0"/>
    </tripinfo>
    <tripinfo id="-E2__0__motorbike.0" depart="1.00" departLane="-E2_1" departPos="2.10" departPosLat="0.00" departSpeed="0.00" departDelay="0.16" arrival="71.00" arrivalLane="-E0_2" arrivalPos="76.80" arrivalPosLat="0.00" arrivalSpeed="10.67" duration="70.00" routeLength="202.78" waitingTime="39.00" waitingCount="1" stopTime="0.00" timeLoss="50.86" rerouteNo="0" devices="tripinfo_-E2__0__motorbike.0 emissions_-E2__0__motorbike.0" vType="motorbike" speedFactor="1.11" vaporized="">
        <emissions CO_abs="10395.008920" CO2_abs="126081.831937" HC_abs="39.260083" PMx_abs="10.903469" NOx_abs="29.997935" fuel_abs="40220.318144" electricity_abs="0"/>
    </tripinfo>
    <tripinfo id="-E2__0__motorbike.4" depart="18.00" departLane="-E2_1" departPos="2.10" departPosLat="0.00" departSpeed="0.00" departDelay="1.25" arrival="72.00" arrivalLane="-E0_2" arrivalPos="76.80" arrivalPosLat="0.45" arrivalSpeed="10.99" duration="54.00" routeLength="202.78" waitingTime="23.00" waitingCount="1" stopTime="0.00" timeLoss="35.65" rerouteNo="0" devices="tripinfo_-E2__0__motorbike.4 emissions_-E2__0__motorbike.4" vType="motorbike" speedFactor="1.19" vaporized="">
        <emissions CO_abs="7588.249454" CO2_abs="106748.137092" HC_abs="29.214480" PMx_abs="8.291744" NOx_abs="25.117077" fuel_abs="34052.605569" electricity_abs="0"/>
    </tripinfo>
    <tripinfo id="E0__0__motorbike.10" depart="45.00" departLane="E0_1" departPos="2.10" departPosLat="0.00" departSpeed="0.00" departDelay="0.54" arrival="72.00" arrivalLane="E1_1" arrivalPos="107.01" arrivalPosLat="0.00" arrivalSpeed="9.32" duration="27.00" routeLength="190.74" waitingTime="0.00" waitingCount="0" stopTime="0.00" timeLoss="5.32" rerouteNo="0" devices="tripinfo_E0__0__motorbike.10 emissions_E0__0__motorbike.10" vType="motorbike" speedFactor="0.84" vaporized="">
        <emissions CO_abs="2136.966369" CO2_abs="57567.311113" HC_abs="9.126050" PMx_abs="2.820058" NOx_abs="13.440786" fuel_abs="18363.526022" electricity_abs="0"/>
    </tripinfo>
    <tripinfo id="-E5__0__car.0" depart="4.00" departLane="-E5_1" departPos="4.60" departPosLat="0.00" departSpeed="0.00" departDelay="0.57" arrival="73.00" arrivalLane="E4_3" arrivalPos="100.65" arrivalPosLat="0.00" arrivalSpeed="10.23" duration="69.00" routeLength="266.64" waitingTime="31.00" waitingCount="1" stopTime="0.00" timeLoss="42.81" rerouteNo="0" devices="tripinfo_-E5__0__car.0 emissions_-E5__0__car.0" vType="car" speedFactor="0.92" vaporized="">
        <emissions CO_abs="7603.246491" CO2_abs="180499.624486" HC_abs="38.805655" PMx_abs="3.690491" NOx_abs="77.668016" fuel_abs="57573.536006" electricity_abs="0"/>
    </tripinfo>
    <tripinfo id="-E2__0__motorbike.1" depart="5.00" departLane="-E2_2" departPos="2.10" departPosLat="0.00" departSpeed="0.00" departDelay="0.84" arrival="73.00" arrivalLane="-E0_2" arrivalPos="76.80" arrivalPosLat="-1.15" arrivalSpeed="8.58" duration="68.00" routeLength="202.78" waitingTime="32.00" waitingCount="1" stopTime="0.00" timeLoss="43.96" rerouteNo="0" devices="tripinfo_-E2__0__motorbike.1 emissions_-E2__0__motorbike.1" vType="motorbike" speedFactor="0.78" vaporized="">
        <emissions CO_abs="9046.583607" CO2_abs="107398.260563" HC_abs="33.945160" PMx_abs="9.314542" NOx_abs="25.877477" fuel_abs="34260.262003" electricity_abs="0"/>
    </tripinfo>
    <tripinfo id="-E2__0__motorbike.5" depart="24.00" departLane="-E2_2" departPos="2.10" departPosLat="0.00" departSpeed="0.00" departDelay="0.65" arrival="74.00" arrivalLane="-E0_2" arrivalPos="76.80" arrivalPosLat="0.00" arrivalSpeed="10.02" duration="50.00" routeLength="202.78" waitingTime="19.00" waitingCount="1" stopTime="0.00" timeLoss="30.73" rerouteNo="0" devices="tripinfo_-E2__0__motorbike.5 emissions_-E2__0__motorbike.5" vType="motorbike" speedFactor="0.97" vaporized="">
        <emissions CO_abs="6392.833324" CO2_abs="98259.498824" HC_abs="24.847720" PMx_abs="7.094548" NOx_abs="23.188137" fuel_abs="31344.586004" electricity_abs="0"/>
    </tripinfo>
    <tripinfo id="-E1__0__motorbike.3" depart="11.00" departLane="-E1_2" departPos="2.10" departPosLat="0.00" departSpeed="0.00" departDelay="0.18" arrival="77.00" arrivalLane="E4_1" arrivalPos="100.65" arrivalPosLat="0.00" arrivalSpeed="10.49" duration="66.00" routeLength="397.66" waitingTime="12.00" waitingCount="1" stopTime="0.00" timeLoss="29.37" rerouteNo="0" devices="tripinfo_-E1__0__motorbike.3 emissions_-E1__0__motorbike.3" vType="motorbike" speedFactor="1.09" vaporized="">
        <emissions CO_abs="7286.002247" CO2_abs="145962.928994" HC_abs="29.577448" PMx_abs="8.819465" NOx_abs="33.977995" fuel_abs="46561.421962" electricity_abs="0"/>
    </tripinfo>
    <tripinfo id="-E2__0__car.1" depart="29.00" departLane="-E2_1" departPos="4.60" departPosLat="0.00" departSpeed="0.00" departDelay="0.71" arrival="77.00" arrivalLane="-E0_2" arrivalPos="76.80" arrivalPosLat="0.00" arrivalSpeed="9.23" duration="48.00" routeLength="200.28" waitingTime="15.00" waitingCount="1" stopTime="0.00" timeLoss="25.84" rerouteNo="0" devices="tripinfo_-E2__0__car.1 emissions_-E2__0__car.1" vType="car" speedFactor="0.84" vaporized="">
        <emissions CO_abs="4953.398487" CO2_abs="127773.975210" HC_abs="25.503400" PMx_abs="2.484426" NOx_abs="54.307014" fuel_abs="40755.621998" electricity_abs="0"/>
    </tripinfo>
    <tripinfo id="-E5__0__motorbike.5" depart="30.00" departLane="-E5_2" departPos="2.10" departPosLat="0.00" departSpeed="0.00" departDelay="0.17" arrival="77.00" arrivalLane="E4_3" arrivalPos="100.65" arrivalPosLat="0.00" arrivalSpeed="10.30" duration="47.00" routeLength="269.14" waitingTime="9.00" waitingCount="1" stopTime="0.00" timeLoss="21.13" rerouteNo="0" devices="tripinfo_-E5__0__motorbike.5 emissions_-E5__0__motorbike.5" vType="motorbike" speedFactor="0.95" vaporized="">
        <emissions CO_abs="5275.468299" CO2_abs="104741.346530" HC_abs="21.290624" PMx_abs="6.282328" NOx_abs="24.582412" fuel_abs="33411.951859" electricity_abs="0"/>
    </tripinfo>
    <tripinfo id="-E5__0__motorbike.7" depart="45.00" departLane="-E5_3" departPos="2.10" departPosLat="0.00" departSpeed="0.00" departDelay="1.72" arrival="77.00" arrivalLane="E6_1" arrivalPos="109.06" arrivalPosLat="0.00" arrivalSpeed="11.05" duration="32.00" routeLength="262.07" waitingTime="0.00" waitingCount="0" stopTime="0.00" timeLoss="7.53" rerouteNo="0" devices="tripinfo_-E5__0__motorbike.7 emissions_-E5__0__motorbike.7" vType="motorbike" speedFactor="1.02" vaporized="">
        <emissions CO_abs="2935.016213" CO2_abs="88885.267112" HC_abs="13.071882" PMx_abs="4.243293" NOx_abs="20.274923" fuel_abs="28353.635145" electricity_abs="0"/>
    </tripinfo>
    <tripinfo id="-E2__0__car.2" depart="34.00" departLane="-E2_2" departPos="4.60" departPosLat="0.00" departSpeed="0.00" departDelay="0.34" arrival="79.00" arrivalLane="-E0_2" arrivalPos="76.80" arrivalPosLat="0.00" arrivalSpeed="9.34" duration="45.00" routeLength="200.28" waitingTime="13.00" waitingCount="1" stopTime="0.00" timeLoss="23.43" rerouteNo="0" devices="tripinfo_-E2__0__car.2 emissions_-E2__0__car.2" vType="car" speedFactor="0.87" vaporized="">
        <emissions CO_abs="4507.390477" CO2_abs="124761.104878" HC_abs="23.387708" PMx_abs="2.292611" NOx_abs="52.124067" fuel_abs="39794.563022" electricity_abs="0"/>
    </tripinfo>
    <tripinfo id="-E2__0__car.3" depart="44.00" departLane="-E2_1" departPos="4.60" departPosLat="0.00" departSpeed="0.00" departDelay="0.81" arrival="80.00" arrivalLane="-E0_2" arrivalPos="76.80" arrivalPosLat="0.00" arrivalSpeed="10.30" duration="36.00" routeLength="200.28" waitingTime="4.00" waitingCount="1" stopTime="0.00" timeLoss="17.57" rerouteNo="0" devices="tripinfo_-E2__0__car.3 emissions_-E2__0__car.3" vType="car" speedFactor="0.99" vaporized="">
        <emissions CO_abs="3153.313351" CO2_abs="105330.800851" HC_abs="16.786876" PMx_abs="1.893350" NOx_abs="43.809437" fuel_abs="33596.582183" electricity_abs="0"/>
    </tripinfo>
    <tripinfo id="-E5__0__motorbike.8" depart="46.00" departLane="-E5_2" departPos="2.10" departPosLat="0.00" departSpeed="0.00" departDelay="0.10" arrival="80.00" arrivalLane="E6_1" arrivalPos="109.06" arrivalPosLat="0.00" arrivalSpeed="10.41" duration="34.00" routeLength="262.07" waitingTime="0.00" waitingCount="0" stopTime="0.00" timeLoss="9.93" rerouteNo="0" devices="tripinfo_-E5__0__motorbike.8 emissions_-E5__0__motorbike.8" vType="motorbike" speedFactor="1.13" vaporized="">
        <emissions CO_abs="3308.005814" CO2_abs="94618.735148" HC_abs="14.483502" PMx_abs="4.627257" NOx_abs="21.686525" fuel_abs="30182.621126" electricity_abs="0"/>
    </tripinfo>
    <tripinfo id="-E2__0__motorbike.7" depart="47.00" departLane="-E2_2" departPos="2.10" departPosLat="0.00" departSpeed="0.00" departDelay="0.98" arrival="82.00" arrivalLane="-E0_2" arrivalPos="76.80" arrivalPosLat="0.00" arrivalSpeed="10.86" duration="35.00" routeLength="202.78" waitingTime="1.00" waitingCount="1" stopTime="0.00" timeLoss="15.90" rerouteNo="0" devices="tripinfo_-E2__0__motorbike.7 emissions_-E2__0__motorbike.7" vType="motorbike" speedFactor="1.00" vaporized="">
        <emissions CO_abs="3996.974059" CO2_abs="84185.546101" HC_abs="16.429299" PMx_abs="4.986133" NOx_abs="19.381178" fuel_abs="26854.768885" electricity_abs="0"/>
    </tripinfo>
    <tripinfo id="-E5__0__motorbike.10" depart="54.00" departLane="-E5_2" departPos="2.10" departPosLat="0.00" departSpeed="0.00" departDelay="0.53" arrival="86.00" arrivalLane="E6_1" arrivalPos="109.06" arrivalPosLat="0.00" arrivalSpeed="11.02" duration="32.00" routeLength="262.07" waitingTime="0.00" waitingCount="0" stopTime="0.00" timeLoss="7.43" rerouteNo="0" devices="tripinfo_-E5__0__motorbike.10 emissions_-E5__0__motorbike.10" vType="motorbike" speedFactor="1.13" vaporized="">
        <emissions CO_abs="2732.765649" CO2_abs="78288.214572" HC_abs="11.995326" PMx_abs="3.845260" NOx_abs="17.902607" fuel_abs="24973.298348" electricity_abs="0"/>
    </tripinfo>
    <tripinfo id="E0__1__motorbike.0" depart="61.00" departLane="E0_3" departPos="2.10" departPosLat="0.00" departSpeed="0.00" departDelay="0.91" arrival="87.00" arrivalLane="E1_1" arrivalPos="107.01" arrivalPosLat="0.00" arrivalSpeed="10.58" duration="26.00" routeLength="190.74" waitingTime="0.00" waitingCount="0" stopTime="0.00" timeLoss="7.23" rerouteNo="0" devices="tripinfo_E0__1__motorbike.0 emissions_E0__1__motorbike.0" vType="motorbike" speedFactor="0.96" vaporized="">
        <emissions CO_abs="2452.202950" CO2_abs="66505.514808" HC_abs="10.628443" PMx_abs="3.377699" NOx_abs="15.203691" fuel_abs="21214.765422" electricity_abs="0"/>
    </tripinfo>
    <tripinfo id="-E5__0__motorbike.0" depart="2.00" departLane="-E5_2" departPos="2.10" departPosLat="0.00" departSpeed="0.00" departDelay="0.46" arrival="88.00" arrivalLane="-E0_1" arrivalPos="76.80" arrivalPosLat="0.00" arrivalSpeed="10.47" duration="86.00" routeLength="412.88" waitingTime="34.00" waitingCount="1" stopTime="0.00" timeLoss="47.63" rerouteNo="0" devices="tripinfo_-E5__0__motorbike.0 emissions_-E5__0__motorbike.0" vType="motorbike" speedFactor="1.04" vaporized="">
        <emissions CO_abs="10604.526465" CO2_abs="168515.682483" HC_abs="41.408410" PMx_abs="11.859146" NOx_abs="39.796358" fuel_abs="53756.020385" electricity_abs="0"/>
    </tripinfo>