<?xml version="1.0" encoding="UTF-8"?>

<!-- generated on 2026-06-21 13:31:36 by Eclipse SUMO GUI Version 1.18.0
<configuration xmlns:xsi="http://www.w3.org/2001/XMLSchema-instance" xsi:noNamespaceSchemaLocation="http://sumo.dlr.de/xsd/sumoConfiguration.xsd">

    <input>
        <net-file value="./Scenario/test/env/test.net.xml"/>
        <route-files value="./Scenario/test/env/../routes/vehicle.rou.xml"/>
        <additional-files value="./Scenario/test/env/../add/tls.add.xml,./Scenario/test/env/ ../add/e2.add.xml"/>
    </input>

    <output>
        <netstate-dump value="./Scenario/test/env/../output/e2.netstate.xml"/>
        <netstate-dump.precision value="2"/>
        <summary-output value="./Scenario/test/env/../output/e2_summary.output.xml"/>
        <tripinfo-output value="./Scenario/test/env/../output/e2.tripinfo.xml"/>
    </output>

    <time>
        <begin value="0"/>
        <end value="500"/>
        <step-length value="1.0"/>
    </time>

    <processing>
        <lateral-resolution value="0.2"/>
    </processing>

</configuration>
-->

<netstate xmlns:xsi="http://www.w3.org/2001/XMLSchema-instance" xsi:noNamespaceSchemaLocation="http://sumo.dlr.de/xsd/netstate_file.xsd">
    <timestep time="0.00"/>
    <timestep time="1.00"/>
    <timestep time="2.00"/>
    <timestep time="3.00"/>
    <timestep time="4.00">
        <edge id="-E4">
            <lane id="-E4_0"/>
            <lane id="-E4_1"/>
            <lane id="-E4_2"/>
            <lane id="-E4_3">
                <vehicle id="-E4__0__motorbike.0" pos="2.10" speed="0.00" posLat="0.00" speedLat="0.00"/>
            </lane>
        </edge>
    </timestep>
    <timestep time="5.00">
        <edge id="-E4">
            <lane id="-E4_0"/>
            <lane id="-E4_1"/>
            <lane id="-E4_2"/>
            <lane id="-E4_3">
                <vehicle id="-E4__0__motorbike.0" pos="2.89" speed="0.79" posLat="0.00" speedLat="0.00"/>
            </lane>
        </edge>
    </timestep>
    <timestep time="6.00">
        <edge id="-E4">
            <lane id="-E4_0"/>
            <lane id="-E4_1"/>
            <lane id="-E4_2"/>
            <lane id="-E4_3">
                <vehicle id="-E4__0__motorbike.0" pos="5.14" speed="2.25" posLat="0.00" speedLat="0.00"/>
            </lane>
        </edge>
    </timestep>
    <timestep time="7.00">
        <edge id="-E4">
            <lane id="-E4_0"/>
            <lane id="-E4_1"/>
            <lane id="-E4_2"/>
            <lane id="-E4_3">
                <vehicle id="-E4__0__motorbike.0" pos="8.75" speed="3.60" posLat="0.00" speedLat="0.00"/>
            </lane>
        </edge>
        <edge id="-E6">
            <lane id="-E6_0"/>
            <lane id="-E6_1"/>
            <lane id="-E6_2">
                <vehicle id="-E6__0__motorbike.0" pos="2.10" speed="0.00" posLat="0.00" speedLat="0.00"/>
            </lane>
            <lane id="-E6_3">
                <vehicle id="-E6__0__motorbike.1" pos="2.10" speed="0.00" posLat="0.00" speedLat="0.00"/>
            </lane>
        </edge>
    </timestep>
    <timestep time="8.00">
        <edge id="-E4">
            <lane id="-E4_0"/>
            <lane id="-E4_1"/>
            <lane id="-E4_2"/>
            <lane id="-E4_3">
                <vehicle id="-E4__0__motorbike.0" pos="13.62" speed="4.88" posLat="0.00" speedLat="0.00"/>
            </lane>
        </edge>
        <edge id="-E6">
            <lane id="-E6_0"/>
            <lane id="-E6_1"/>
            <lane id="-E6_2">
                <vehicle id="-E6__0__motorbike.0" pos="3.38" speed="1.28" posLat="0.00" speedLat="0.00"/>
            </lane>
            <lane id="-E6_3">
                <vehicle id="-E6__0__motorbike.1" pos="3.13" speed="1.03" posLat="0.00" speedLat="0.00"/>
            </lane>
        </edge>
    </timestep>
    <timestep time="9.00">
        <edge id="-E4">
            <lane id="-E4_0"/>
            <lane id="-E4_1"/>
            <lane id="-E4_2"/>
            <lane id="-E4_3">
                <vehicle id="-E4__0__motorbike.0" pos="19.29" speed="5.67" posLat="0.00" speedLat="0.00"/>
            </lane>
        </edge>
        <edge id="-E6">
            <lane id="-E6_0"/>
            <lane id="-E6_1"/>
            <lane id="-E6_2">
                <vehicle id="-E6__0__motorbike.0" pos="6.11" speed="2.73" posLat="0.00" speedLat="0.00"/>
            </lane>
            <lane id="-E6_3">
                <vehicle id="-E6__0__motorbike.1" pos="5.30" speed="2.17" posLat="0.00" speedLat="0.00"/>
            </lane>
        </edge>
    </timestep>
    <timestep time="10.00">
        <edge id="-E4">
            <lane id="-E4_0"/>
            <lane id="-E4_1"/>
            <lane id="-E4_2"/>
            <lane id="-E4_3">
                <vehicle id="-E4__0__motorbike.0" pos="26.31" speed="7.01" posLat="0.00" speedLat="0.00"/>
            </lane>
        </edge>
        <edge id="-E6">
            <lane id="-E6_0"/>
            <lane id="-E6_1"/>
            <lane id="-E6_2">
                <vehicle id="-E6__0__motorbike.0" pos="10.19" speed="4.08" posLat="0.00" speedLat="0.00"/>
            </lane>
            <lane id="-E6_3">
                <vehicle id="-E6__0__motorbike.1" pos="8.47" speed="3.16" posLat="0.00" speedLat="0.00"/>
            </lane>
        </edge>
    </timestep>
    <timestep time="11.00">
        <edge id="-E2">
            <lane id="-E2_0"/>
            <lane id="-E2_1">
                <vehicle id="-E2__0__car.0" pos="4.60" speed="0.00" posLat="0.00" speedLat="0.00"/>
            </lane>
            <lane id="-E2_2"/>
            <lane id="-E2_3"/>
        </edge>
        <edge id="-E4">
            <lane id="-E4_0"/>
            <lane id="-E4_1"/>
            <lane id="-E4_2"/>
            <lane id="-E4_3">
                <vehicle id="-E4__0__motorbike.0" pos="34.30" speed="8.00" posLat="0.00" speedLat="0.00"/>
            </lane>
        </edge>
        <edge id="-E6">
            <lane id="-E6_0"/>
            <lane id="-E6_1"/>
            <lane id="-E6_2">
                <vehicle id="-E6__0__motorbike.0" pos="15.58" speed="5.40" posLat="1.00" speedLat="1.00"/>
            </lane>
            <lane id="-E6_3">
                <vehicle id="-E6__0__motorbike.1" pos="12.72" speed="4.26" posLat="0.00" speedLat="0.00"/>
            </lane>
        </edge>
    </timestep>
    <timestep time="12.00">
        <edge id="-E2">
            <lane id="-E2_0"/>
            <lane id="-E2_1">
                <vehicle id="-E2__0__car.0" pos="6.04" speed="1.44" posLat="0.00" speedLat="0.00"/>
            </lane>
            <lane id="-E2_2"/>
            <lane id="-E2_3"/>
        </edge>
        <edge id="-E4">
            <lane id="-E4_0"/>
            <lane id="-E4_1"/>
            <lane id="-E4_2"/>
            <lane id="-E4_3">
                <vehicle id="-E4__0__motorbike.0" pos="43.45" speed="9.15" posLat="0.00" speedLat="0.00"/>
            </lane>
        </edge>
        <edge id="-E5">
            <lane id="-E5_0"/>
            <lane id="-E5_1"/>
            <lane id="-E5_2"/>
            <lane id="-E5_3">
                <vehicle id="-E5__0__motorbike.0" pos="2.10" speed="0.00" posLat="0.00" speedLat="0.00"/>
            </lane>
        </edge>
        <edge id="-E6">
            <lane id="-E6_0"/>
            <lane id="-E6_1"/>
            <lane id="-E6_2"/>
            <lane id="-E6_3">
                <vehicle id="-E6__0__motorbike.1" pos="18.24" speed="5.52" posLat="0.00" speedLat="0.00"/>
                <vehicle id="-E6__0__motorbike.0" pos="22.33" speed="6.74" posLat="-1.20" speedLat="1.00"/>
            </lane>
        </edge>
    </timestep>
    <timestep time="13.00">
        <edge id="-E2">
            <lane id="-E2_0"/>
            <lane id="-E2_1">
                <vehicle id="-E2__0__car.0" pos="8.55" speed="2.51" posLat="0.00" speedLat="0.00"/>
            </lane>
            <lane id="-E2_2"/>
            <lane id="-E2_3"/>
        </edge>
        <edge id="-E4">
            <lane id="-E4_0"/>
            <lane id="-E4_1"/>
            <lane id="-E4_2"/>
            <lane id="-E4_3">
                <vehicle id="-E4__0__motorbike.0" pos="53.61" speed="10.16" posLat="0.00" speedLat="0.00"/>
            </lane>
        </edge>
        <edge id="-E5">
            <lane id="-E5_0"/>
            <lane id="-E5_1"/>
            <lane id="-E5_2"/>
            <lane id="-E5_3">
                <vehicle id="-E5__0__motorbike.0" pos="3.55" speed="1.45" posLat="0.00" speedLat="0.00"/>
            </lane>
        </edge>
        <edge id="-E6">
            <lane id="-E6_0"/>
            <lane id="-E6_1"/>
            <lane id="-E6_2">
                <vehicle id="-E6__0__motorbike.2" pos="2.10" speed="0.00" posLat="0.00" speedLat="0.00"/>
            </lane>
            <lane id="-E6_3">
                <vehicle id="-E6__0__motorbike.1" pos="24.67" speed="6.43" posLat="0.00" speedLat="0.00"/>
                <vehicle id="-E6__0__motorbike.0" pos="30.48" speed="8.15" posLat="-1.20" speedLat="0.00"/>
            </lane>
        </edge>
    </timestep>
    <timestep time="14.00">
        <edge id="-E2">
            <lane id="-E2_0"/>
            <lane id="-E2_1">
                <vehicle id="-E2__0__car.0" pos="12.53" speed="3.98" posLat="1.00" speedLat="1.00"/>
            </lane>
            <lane id="-E2_2"/>
            <lane id="-E2_3"/>
        </edge>
        <edge id="-E4">
            <lane id="-E4_0"/>
            <lane id="-E4_1"/>
            <lane id="-E4_2"/>
            <lane id="-E4_3">
                <vehicle id="-E4__0__motorbike.0" pos="64.69" speed="11.08" posLat="0.00" speedLat="0.00"/>
            </lane>
        </edge>
        <edge id="-E5">
            <lane id="-E5_0"/>
            <lane id="-E5_1"/>
            <lane id="-E5_2"/>
            <lane id="-E5_3">
                <vehicle id="-E5__0__motorbike.0" pos="6.21" speed="2.67" posLat="0.00" speedLat="0.00"/>
            </lane>
        </edge>
        <edge id="-E6">
            <lane id="-E6_0"/>
            <lane id="-E6_1"/>
            <lane id="-E6_2">
                <vehicle id="-E6__0__motorbike.2" pos="3.15" speed="1.05" posLat="0.00" speedLat="0.00"/>
            </lane>
            <lane id="-E6_3">
                <vehicle id="-E6__0__motorbike.1" pos="32.37" speed="7.70" posLat="0.00" speedLat="0.00"/>
                <vehicle id="-E6__0__motorbike.0" pos="40.13" speed="9.65" posLat="-1.20" speedLat="0.00"/>
            </lane>
        </edge>
    </timestep>
    <timestep time="15.00">
        <edge id="-E2">
            <lane id="-E2_0"/>
            <lane id="-E2_1"/>
            <lane id="-E2_2">
                <vehicle id="-E2__0__car.0" pos="17.80" speed="5.26" posLat="-1.20" speedLat="1.00"/>
            </lane>
            <lane id="-E2_3"/>
        </edge>
        <edge id="-E4">
            <lane id="-E4_0"/>
            <lane id="-E4_1"/>
            <lane id="-E4_2"/>
            <lane id="-E4_3">
                <vehicle id="-E4__0__motorbike.0" pos="75.57" speed="10.88" posLat="0.00" speedLat="0.00"/>
            </lane>
        </edge>
        <edge id="-E5">
            <lane id="-E5_0"/>
            <lane id="-E5_1"/>
            <lane id="-E5_2"/>
            <lane id="-E5_3">
                <vehicle id="-E5__0__motorbike.0" pos="9.65" speed="3.44" posLat="0.00" speedLat="0.00"/>
            </lane>
        </edge>
        <edge id="-E6">
            <lane id="-E6_0"/>
            <lane id="-E6_1"/>
            <lane id="-E6_2">
                <vehicle id="-E6__0__motorbike.2" pos="4.98" speed="1.83" posLat="0.00" speedLat="0.00"/>
            </lane>
            <lane id="-E6_3">
                <vehicle id="-E6__0__motorbike.1" pos="38.12" speed="5.76" posLat="-1.00" speedLat="-1.00"/>
                <vehicle id="-E6__0__motorbike.0" pos="50.20" speed="10.06" posLat="-0.20" speedLat="1.00"/>
            </lane>
        </edge>
    </timestep>
    <timestep time="16.00">
        <edge id="-E2">
            <lane id="-E2_0"/>
            <lane id="-E2_1"/>
            <lane id="-E2_2">
                <vehicle id="-E2__0__car.0" pos="24.28" speed="6.48" posLat="-0.20" speedLat="1.00"/>
            </lane>
            <lane id="-E2_3"/>
        </edge>
        <edge id="-E4">
            <lane id="-E4_0"/>
            <lane id="-E4_1"/>
            <lane id="-E4_2"/>
            <lane id="-E4_3">
                <vehicle id="-E4__0__motorbike.0" pos="86.28" speed="10.71" posLat="0.00" speedLat="0.00"/>
            </lane>
        </edge>
        <edge id="-E5">
            <lane id="-E5_0"/>
            <lane id="-E5_1"/>
            <lane id="-E5_2"/>
            <lane id="-E5_3">
                <vehicle id="-E5__0__motorbike.0" pos="14.03" speed="4.38" posLat="0.00" speedLat="0.00"/>
            </lane>
        </edge>
        <edge id="-E6">
            <lane id="-E6_0"/>
            <lane id="-E6_1"/>
            <lane id="-E6_2">
                <vehicle id="-E6__0__motorbike.2" pos="7.81" speed="2.84" posLat="0.00" speedLat="0.00"/>
                <vehicle id="-E6__0__motorbike.1" pos="45.31" speed="7.19" posLat="1.20" speedLat="-1.00"/>
            </lane>
            <lane id="-E6_3">
                <vehicle id="-E6__0__motorbike.0" pos="60.43" speed="10.24" posLat="0.00" speedLat="0.20"/>
            </lane>
        </edge>
        <edge id="E0">
            <lane id="E0_0"/>
            <lane id="E0_1"/>
            <lane id="E0_2">
                <vehicle id="E0__0__car.0" pos="4.60" speed="0.00" posLat="0.00" speedLat="0.00"/>
            </lane>
            <lane id="E0_3"/>
        </edge>
    </timestep>
    <timestep time="17.00">
        <edge id="-E2">
            <lane id="-E2_0"/>
            <lane id="-E2_1"/>
            <lane id="-E2_2">
                <vehicle id="-E2__0__car.0" pos="32.17" speed="7.89" posLat="0.00" speedLat="0.20"/>
            </lane>
            <lane id="-E2_3"/>
        </edge>
        <edge id="-E4">
            <lane id="-E4_0"/>
            <lane id="-E4_1"/>
            <lane id="-E4_2"/>
            <lane id="-E4_3">
                <vehicle id="-E4__0__motorbike.0" pos="96.88" speed="10.60" posLat="0.00" speedLat="0.00"/>
            </lane>
        </edge>
        <edge id="-E5">
            <lane id="-E5_0"/>
            <lane id="-E5_1"/>
            <lane id="-E5_2"/>
            <lane id="-E5_3">
                <vehicle id="-E5__0__motorbike.0" pos="19.20" speed="5.17" posLat="0.00" speedLat="0.00"/>
            </lane>
        </edge>
        <edge id="-E6">
            <lane id="-E6_0"/>
            <lane id="-E6_1"/>
            <lane id="-E6_2">
                <vehicle id="-E6__0__motorbike.2" pos="11.88" speed="4.07" posLat="0.00" speedLat="0.00"/>
                <vehicle id="-E6__0__motorbike.1" pos="53.30" speed="7.98" posLat="0.20" speedLat="-1.00"/>
            </lane>
            <lane id="-E6_3">
                <vehicle id="-E6__0__motorbike.0" pos="70.62" speed="10.18" posLat="0.00" speedLat="0.00"/>
            </lane>
        </edge>
        <edge id="E0">
            <lane id="E0_0"/>
            <lane id="E0_1"/>
            <lane id="E0_2">
                <vehicle id="E0__0__car.0" pos="5.75" speed="1.15" posLat="0.00" speedLat="0.00"/>
            </lane>
            <lane id="E0_3"/>
        </edge>
    </timestep>
    <timestep time="18.00">
        <edge id="-E2">
            <lane id="-E2_0"/>
            <lane id="-E2_1"/>
            <lane id="-E2_2">
                <vehicle id="-E2__0__car.0" pos="41.11" speed="8.94" posLat="0.00" speedLat="0.00"/>
            </lane>
            <lane id="-E2_3"/>
        </edge>
        <edge id="-E4">
            <lane id="-E4_0"/>
            <lane id="-E4_1"/>
            <lane id="-E4_2">
                <vehicle id="-E4__0__motorbike.1" pos="2.10" speed="0.00" posLat="0.00" speedLat="0.00"/>
            </lane>
            <lane id="-E4_3">
                <vehicle id="-E4__0__motorbike.0" pos="99.50" speed="2.62" posLat="0.00" speedLat="0.00"/>
            </lane>
        </edge>
        <edge id="-E5">
            <lane id="-E5_0"/>
            <lane id="-E5_1"/>
            <lane id="-E5_2"/>
            <lane id="-E5_3">
                <vehicle id="-E5__0__motorbike.0" pos="25.58" speed="6.38" posLat="0.00" speedLat="0.00"/>
            </lane>
        </edge>
        <edge id="-E6">
            <lane id="-E6_0"/>
            <lane id="-E6_1"/>
            <lane id="-E6_2">
                <vehicle id="-E6__0__motorbike.2" pos="17.19" speed="5.30" posLat="-1.00" speedLat="-1.00"/>
                <vehicle id="-E6__0__motorbike.1" pos="62.57" speed="9.28" posLat="0.00" speedLat="-0.20"/>
            </lane>
            <lane id="-E6_3">
                <vehicle id="-E6__0__motorbike.0" pos="80.83" speed="10.22" posLat="0.00" speedLat="0.00"/>
            </lane>
        </edge>
        <edge id="E0">
            <lane id="E0_0"/>
            <lane id="E0_1"/>
            <lane id="E0_2">
                <vehicle id="E0__0__car.0" pos="7.73" speed="1.98" posLat="0.00" speedLat="0.00"/>
            </lane>
            <lane id="E0_3"/>
        </edge>
    </timestep>
    <timestep time="19.00">
        <edge id="-E2">
            <lane id="-E2_0"/>
            <lane id="-E2_1"/>
            <lane id="-E2_2">
                <vehicle id="-E2__0__car.0" pos="51.26" speed="10.16" posLat="0.00" speedLat="0.00"/>
            </lane>
            <lane id="-E2_3"/>
        </edge>
        <edge id="-E4">
            <lane id="-E4_0"/>
            <lane id="-E4_1"/>
            <lane id="-E4_2">
                <vehicle id="-E4__0__motorbike.1" pos="3.37" speed="1.27" posLat="0.00" speedLat="0.00"/>
            </lane>
            <lane id="-E4_3">
                <vehicle id="-E4__0__motorbike.0" pos="99.63" speed="0.12" posLat="0.00" speedLat="0.00"/>
            </lane>
        </edge>
        <edge id="-E5">
            <lane id="-E5_0"/>
            <lane id="-E5_1"/>
            <lane id="-E5_2"/>
            <lane id="-E5_3">
                <vehicle id="-E5__0__motorbike.0" pos="33.20" speed="7.61" posLat="0.00" speedLat="0.00"/>
            </lane>
        </edge>
        <edge id="-E6">
            <lane id="-E6_0"/>
            <lane id="-E6_1">
                <vehicle id="-E6__0__motorbike.2" pos="23.50" speed="6.31" posLat="1.20" speedLat="-1.00"/>
            </lane>
            <lane id="-E6_2">
                <vehicle id="-E6__0__motorbike.1" pos="73.04" speed="10.47" posLat="0.00" speedLat="0.00"/>
            </lane>
            <lane id="-E6_3">
                <vehicle id="-E6__0__motorbike.0" pos="90.89" speed="10.06" posLat="0.00" speedLat="0.00"/>
            </lane>
        </edge>
        <edge id="E0">
            <lane id="E0_0"/>
            <lane id="E0_1"/>
            <lane id="E0_2">
                <vehicle id="E0__0__car.0" pos="11.11" speed="3.38" posLat="0.00" speedLat="0.00"/>
            </lane>
            <lane id="E0_3"/>
        </edge>
    </timestep>
    <timestep time="20.00">
        <edge id="-E2">
            <lane id="-E2_0"/>
            <lane id="-E2_1"/>
            <lane id="-E2_2">
                <vehicle id="-E2__0__car.0" pos="62.30" speed="11.04" posLat="0.00" speedLat="0.00"/>
            </lane>
            <lane id="-E2_3"/>
        </edge>
        <edge id="-E4">
            <lane id="-E4_0"/>
            <lane id="-E4_1"/>
            <lane id="-E4_2">
                <vehicle id="-E4__0__motorbike.1" pos="5.80" speed="2.43" posLat="0.00" speedLat="0.00"/>
            </lane>
            <lane id="-E4_3">
                <vehicle id="-E4__0__motorbike.0" pos="99.65" speed="0.02" posLat="0.00" speedLat="0.00"/>
            </lane>
        </edge>
        <edge id="-E5">
            <lane id="-E5_0"/>
            <lane id="-E5_1"/>
            <lane id="-E5_2"/>
            <lane id="-E5_3">
                <vehicle id="-E5__0__motorbike.0" pos="41.58" speed="8.38" posLat="0.00" speedLat="0.00"/>
            </lane>
        </edge>
        <edge id="-E6">
            <lane id="-E6_0"/>
            <lane id="-E6_1">
                <vehicle id="-E6__0__motorbike.2" pos="31.26" speed="7.77" posLat="0.20" speedLat="-1.00"/>
            </lane>
            <lane id="-E6_2">
                <vehicle id="-E6__0__motorbike.1" pos="83.68" speed="10.64" posLat="0.00" speedLat="0.00"/>
            </lane>
            <lane id="-E6_3">
                <vehicle id="-E6__0__motorbike.0" pos="100.91" speed="10.01" posLat="0.00" speedLat="0.00"/>
            </lane>
        </edge>
        <edge id="E0">
            <lane id="E0_0"/>
            <lane id="E0_1"/>
            <lane id="E0_2">
                <vehicle id="E0__0__car.0" pos="15.64" speed="4.54" posLat="0.00" speedLat="0.00"/>
            </lane>
            <lane id="E0_3"/>
        </edge>
    </timestep>
    <timestep time="21.00">
        <edge id="-E2">
            <lane id="-E2_0"/>
            <lane id="-E2_1"/>
            <lane id="-E2_2">
                <vehicle id="-E2__0__car.0" pos="73.35" speed="11.06" posLat="0.00" speedLat="0.00"/>
            </lane>
            <lane id="-E2_3"/>
        </edge>
        <edge id="-E4">
            <lane id="-E4_0"/>
            <lane id="-E4_1"/>
            <lane id="-E4_2">
                <vehicle id="-E4__0__motorbike.1" pos="9.73" speed="3.93" posLat="0.00" speedLat="0.00"/>
            </lane>
            <lane id="-E4_3">
                <vehicle id="-E4__0__motorbike.0" pos="99.65" speed="0.00" posLat="0.00" speedLat="0.00"/>
            </lane>
        </edge>
        <edge id="-E5">
            <lane id="-E5_0"/>
            <lane id="-E5_1"/>
            <lane id="-E5_2"/>
            <lane id="-E5_3">
                <vehicle id="-E5__0__motorbike.0" pos="50.98" speed="9.40" posLat="0.00" speedLat="0.00"/>
            </lane>
        </edge>
        <edge id="-E6">
            <lane id="-E6_0"/>
            <lane id="-E6_1">
                <vehicle id="-E6__0__motorbike.2" pos="39.93" speed="8.67" posLat="0.00" speedLat="-0.20"/>
            </lane>
            <lane id="-E6_2">
                <vehicle id="-E6__0__motorbike.1" pos="94.23" speed="10.55" posLat="0.00" speedLat="0.00"/>
            </lane>
            <lane id="-E6_3">
                <vehicle id="-E6__0__motorbike.0" pos="107.33" speed="6.43" posLat="0.00" speedLat="0.00"/>
            </lane>
        </edge>
        <edge id="E0">
            <lane id="E0_0"/>
            <lane id="E0_1"/>
            <lane id="E0_2">
                <vehicle id="E0__0__car.0" pos="21.51" speed="5.87" posLat="0.00" speedLat="0.00"/>
            </lane>
            <lane id="E0_3"/>
        </edge>
    </timestep>
    <timestep time="22.00">
        <edge id="-E2">
            <lane id="-E2_0"/>
            <lane id="-E2_1"/>
            <lane id="-E2_2">
                <vehicle id="-E2__0__car.0" pos="83.96" speed="10.61" posLat="0.00" speedLat="0.00"/>
            </lane>
            <lane id="-E2_3"/>
        </edge>
        <edge id="-E4">
            <lane id="-E4_0"/>
            <lane id="-E4_1"/>
            <lane id="-E4_2">
                <vehicle id="-E4__0__motorbike.1" pos="14.91" speed="5.18" posLat="0.00" speedLat="0.00"/>
            </lane>
            <lane id="-E4_3">
                <vehicle id="-E4__0__motorbike.0" pos="99.65" speed="0.00" posLat="0.00" speedLat="0.00"/>
            </lane>
        </edge>
        <edge id="-E5">
            <lane id="-E5_0"/>
            <lane id="-E5_1"/>
            <lane id="-E5_2"/>
            <lane id="-E5_3">
                <vehicle id="-E5__0__motorbike.0" pos="61.60" speed="10.62" posLat="0.00" speedLat="0.00"/>
            </lane>
        </edge>
        <edge id="-E6">
            <lane id="-E6_0"/>
            <lane id="-E6_1">
                <vehicle id="-E6__0__motorbike.2" pos="48.56" speed="8.63" posLat="0.00" speedLat="0.00"/>
            </lane>
            <lane id="-E6_2">
                <vehicle id="-E6__0__motorbike.1" pos="105.32" speed="11.09" posLat="0.00" speedLat="0.00"/>
            </lane>
            <lane id="-E6_3">
                <vehicle id="-E6__0__motorbike.0" pos="107.82" speed="0.49" posLat="0.00" speedLat="0.00"/>
            </lane>
        </edge>
        <edge id="E0">
            <lane id="E0_0"/>
            <lane id="E0_1"/>
            <lane id="E0_2">
                <vehicle id="E0__0__car.0" pos="28.36" speed="6.84" posLat="0.00" speedLat="0.00"/>
            </lane>
            <lane id="E0_3"/>
        </edge>
    </timestep>
    <timestep time="23.00">
        <edge id="-E2">
            <lane id="-E2_0"/>
            <lane id="-E2_1"/>
            <lane id="-E2_2">
                <vehicle id="-E2__0__car.0" pos="95.00" speed="11.04" posLat="0.00" speedLat="0.00"/>
            </lane>
            <lane id="-E2_3"/>
        </edge>
        <edge id="-E4">
            <lane id="-E4_0"/>
            <lane id="-E4_1"/>
            <lane id="-E4_2">
                <vehicle id="-E4__0__motorbike.1" pos="21.21" speed="6.30" posLat="0.00" speedLat="0.00"/>
            </lane>
            <lane id="-E4_3">
                <vehicle id="-E4__0__motorbike.0" pos="99.65" speed="0.00" posLat="0.00" speedLat="0.00"/>
            </lane>
        </edge>
        <edge id="-E5">
            <lane id="-E5_0"/>
            <lane id="-E5_1"/>
            <lane id="-E5_2"/>
            <lane id="-E5_3">
                <vehicle id="-E5__0__motorbike.0" pos="71.97" speed="10.37" posLat="0.00" speedLat="0.00"/>
            </lane>
        </edge>
        <edge id="-E6">
            <lane id="-E6_0"/>
            <lane id="-E6_1">
                <vehicle id="-E6__0__motorbike.2" pos="57.75" speed="9.19" posLat="0.00" speedLat="0.00"/>
            </lane>
            <lane id="-E6_2">
                <vehicle id="-E6__0__motorbike.1" pos="107.81" speed="2.50" posLat="0.00" speedLat="0.00"/>
            </lane>
            <lane id="-E6_3">
                <vehicle id="-E6__0__motorbike.0" pos="107.97" speed="0.14" posLat="0.00" speedLat="0.00"/>
            </lane>
        </edge>
        <edge id="E0">
            <lane id="E0_0"/>
            <lane id="E0_1"/>
            <lane id="E0_2">
                <vehicle id="E0__0__car.0" pos="36.52" speed="8.17" posLat="0.00" speedLat="0.00"/>
            </lane>
            <lane id="E0_3"/>
        </edge>
    </timestep>
    <timestep time="24.00">
        <edge id=":J1_7">
            <lane id=":J1_7_0">
                <vehicle id="-E2__0__car.0" pos="4.80" speed="10.68" posLat="0.00" speedLat="0.00"/>
            </lane>
        </edge>
        <edge id="-E4">
            <lane id="-E4_0"/>
            <lane id="-E4_1"/>
            <lane id="-E4_2">
                <vehicle id="-E4__0__motorbike.1" pos="28.83" speed="7.63" posLat="0.00" speedLat="0.00"/>
            </lane>
            <lane id="-E4_3">
                <vehicle id="-E4__0__motorbike.0" pos="99.65" speed="0.00" posLat="0.00" speedLat="0.00"/>
            </lane>
        </edge>
        <edge id="-E5">
            <lane id="-E5_0"/>
            <lane id="-E5_1"/>
            <lane id="-E5_2"/>
            <lane id="-E5_3">
                <vehicle id="-E5__0__motorbike.0" pos="82.48" speed="10.50" posLat="0.00" speedLat="0.00"/>
            </lane>
        </edge>
        <edge id="-E6">
            <lane id="-E6_0"/>
            <lane id="-E6_1">
                <vehicle id="-E6__0__motorbike.2" pos="66.41" speed="8.66" posLat="0.00" speedLat="0.00"/>
            </lane>
            <lane id="-E6_2">
                <vehicle id="-E6__0__motorbike.1" pos="107.95" speed="0.14" posLat="0.00" speedLat="0.00"/>
            </lane>
            <lane id="-E6_3">
                <vehicle id="-E6__0__motorbike.0" pos="108.02" speed="0.05" posLat="0.00" speedLat="0.00"/>
            </lane>
        </edge>
        <edge id="E0">
            <lane id="E0_0"/>
            <lane id="E0_1"/>
            <lane id="E0_2">
                <vehicle id="E0__0__car.0" pos="45.79" speed="9.27" posLat="0.00" speedLat="0.00"/>
            </lane>
            <lane id="E0_3"/>
        </edge>
    </timestep>
    <timestep time="25.00">
        <edge id=":J1_7">
            <lane id=":J1_7_0">
                <vehicle id="-E2__0__car.0" pos="15.18" speed="10.38" posLat="0.00" speedLat="0.00"/>
            </lane>
        </edge>
        <edge id="-E4">
            <lane id="-E4_0"/>
            <lane id="-E4_1"/>
            <lane id="-E4_2">
                <vehicle id="-E4__0__motorbike.1" pos="37.34" speed="8.51" posLat="0.00" speedLat="0.00"/>
            </lane>
            <lane id="-E4_3">
                <vehicle id="-E4__0__motorbike.0" pos="99.65" speed="0.00" posLat="0.00" speedLat="0.00"/>
            </lane>
        </edge>
        <edge id="-E5">
            <lane id="-E5_0"/>
            <lane id="-E5_1"/>
            <lane id="-E5_2"/>
            <lane id="-E5_3">
                <vehicle id="-E5__0__motorbike.0" pos="92.92" speed="10.45" posLat="0.00" speedLat="0.00"/>
            </lane>
        </edge>
        <edge id="-E6">
            <lane id="-E6_0"/>
            <lane id="-E6_1">
                <vehicle id="-E6__0__motorbike.2" pos="75.23" speed="8.82" posLat="0.00" speedLat="0.00"/>
            </lane>
            <lane id="-E6_2">
                <vehicle id="-E6__0__motorbike.1" pos="108.06" speed="0.11" posLat="0.00" speedLat="0.00"/>
            </lane>
            <lane id="-E6_3">
                <vehicle id="-E6__0__motorbike.0" pos="108.06" speed="0.04" posLat="0.00" speedLat="0.00"/>
            </lane>
        </edge>
        <edge id="E0">
            <lane id="E0_0"/>
            <lane id="E0_1"/>
            <lane id="E0_2">
                <vehicle id="E0__0__car.0" pos="55.98" speed="10.19" posLat="0.00" speedLat="0.00"/>
            </lane>
            <lane id="E0_3"/>