<?xml version="1.0" encoding="UTF-8"?>

<!-- generated on 2026-06-21 13:31:36 by Eclipse SUMO GUI Version 1.18.0
<configuration xmlns:xsi="http://www.w3.org/2001/XMLSchema-instance" xsi:noNamespaceSchemaLocation="http://sumo.dlr.de/xsd/sumoConfiguration.xsd">

    <input>
        <net-file value="./Scenario/test/env/test.net.xml"/>
        <route-files value="./Scenario/test/env/../routes/vehicle.rou.xml"/>
        <additional-files value="./Scenario/test/env/../add/tls.add.xml,./Scenario/test/env/ ../add/e2.add.xml"/>
    </input>

    <output>
        <netstate-dump value="./Scenario/test/env/../output/e2.netstate.xml"/>
        <netstate-dump.precision value="2"/>
        <summary-output value="./Scenario/test/env/../output/e2_summary.output.xml"/>
        <tripinfo-output value="./Scenario/test/env/../output/e2.tripinfo.xml"/>
    </output>

    <time>
        <begin value="0"/>
        <end value="500"/>
        <step-length value="1.0"/>
    </time>

    <processing>
        <lateral-resolution value="0.2"/>
    </processing>

</configuration>
-->

<tripinfos xmlns:xsi="http://www.w3.org/2001/XMLSchema-instance" xsi:noNamespaceSchemaLocation="http://sumo.dlr.de/xsd/tripinfo_file.xsd">
    <tripinfo id="-E2__0__car.0" depart="11.00" departLane="-E2_1" departPos="4.60" departPosLat="0.00" departSpeed="0.00" departDelay="0.12" arrival="34.00" arrivalLane="-E0_2" arrivalPos="76.80" arrivalPosLat="0.00" arrivalSpeed="10.55" duration="23.00" routeLength="200.28" waitingTime="0.00" waitingCount="0" stopTime="0.00" timeLoss="4.29" rerouteNo="0" devices="tripinfo_-E2__0__car.0" vType="car" speedFactor="1.08" vaporized=""/>
    <tripinfo id="-E6__0__motorbike.1" depart="7.00" departLane="-E6_3" departPos="2.10" departPosLat="0.00" departSpeed="0.00" departDelay="0.20" arrival="49.00" arrivalLane="E4_2" arrivalPos="100.65" arrivalPosLat="0.00" arrivalSpeed="11.10" duration="42.00" routeLength="234.81" waitingTime="7.00" waitingCount="1" stopTime="0.00" timeLoss="20.16" rerouteNo="0" devices="tripinfo_-E6__0__motorbike.1" vType="motorbike" speedFactor="1.01" vaporized=""/>
    <tripinfo id="-E6__0__motorbike.0" depart="7.00" departLane="-E6_2" departPos="2.10" departPosLat="0.00" departSpeed="0.00" departDelay="0.46" arrival="54.00" arrivalLane="E5_3" arrivalPos="146.08" arrivalPosLat="0.00" arrivalSpeed="9.94" duration="47.00" routeLength="277.55" waitingTime="9.00" waitingCount="1" stopTime="0.00" timeLoss="19.32" rerouteNo="0" devices="tripinfo_-E6__0__motorbike.0" vType="motorbike" speedFactor="0.94" vaporized=""/>
    <tripinfo id="-E5__0__motorbike.1" depart="26.00" departLane="-E5_2" departPos="2.10" departPosLat="0.00" departSpeed="0.00" departDelay="0.10" arrival="59.00" arrivalLane="E6_1" arrivalPos="109.06" arrivalPosLat="0.00" arrivalSpeed="10.04" duration="33.00" routeLength="262.07" waitingTime="0.00" waitingCount="0" stopTime="0.00" timeLoss="6.33" rerouteNo="0" devices="tripinfo_-E5__0__motorbike.1" vType="motorbike" speedFactor="0.94" vaporized=""/>
    <tripinfo id="-E6__0__motorbike.2" depart="13.00" departLane="-E6_2" departPos="2.10" departPosLat="0.00" departSpeed="0.00" departDelay="0.68" arrival="65.00" arrivalLane="E1_2" arrivalPos="107.01" arrivalPosLat="0.00" arrivalSpeed="8.88" duration="52.00" routeLength="406.07" waitingTime="0.00" waitingCount="0" stopTime="0.00" timeLoss="7.21" rerouteNo="0" devices="tripinfo_-E6__0__motorbike.2" vType="motorbike" speedFactor="0.83" vaporized=""/>
    <tripinfo id="E0__0__car.0" depart="16.00" departLane="E0_2" departPos="4.60" departPosLat="0.00" departSpeed="0.00" departDelay="0.07" arrival="82.00" arrivalLane="E2_2" arrivalPos="100.88" arrivalPosLat="0.00" arrivalSpeed="10.68" duration="66.00" routeLength="200.28" waitingTime="37.00" waitingCount="1" stopTime="0.00" timeLoss="47.21" rerouteNo="0" devices="tripinfo_E0__0__car.0" vType="car" speedFactor="1.05" vaporized=""/>
    <tripinfo id="E0__0__car.1" depart="48.00" departLane="E0_1" departPos="4.60" departPosLat="0.00" departSpeed="0.00" departDelay="0.08" arrival="84.00" arrivalLane="E2_2" arrivalPos="100.88" arrivalPosLat="0.00" arrivalSpeed="10.16" duration="36.00" routeLength="200.28" waitingTime="6.00" waitingCount="1" stopTime="0.00" timeLoss="16.13" rerouteNo="0" devices="tripinfo_E0__0__car.1" vType="car" speedFactor="0.93" vaporized=""/>
    <tripinfo id="E0__0__car.2" depart="53.00" departLane="E0_2" departPos="4.60" departPosLat="0.00" departSpeed="0.00" departDelay="0.87" arrival="87.00" arrivalLane="E2_2" arrivalPos="100.88" arrivalPosLat="0.00" arrivalSpeed="9.56" duration="34.00" routeLength="200.28" waitingTime="3.00" waitingCount="1" stopTime="0.00" timeLoss="13.03" rerouteNo="0" devices="tripinfo_E0__0__car.2" vType="car" speedFactor="0.88" vaporized=""/>
    <tripinfo id="E0__1__motorbike.1" depart="81.00" departLane="E0_2" departPos="2.10" departPosLat="0.00" departSpeed="0.00" departDelay="0.68" arrival="106.00" arrivalLane="E2_2" arrivalPos="100.88" arrivalPosLat="0.00" arrivalSpeed="9.65" duration="25.00" routeLength="202.78" waitingTime="0.00" waitingCount="0" stopTime="0.00" timeLoss="5.03" rerouteNo="0" devices="tripinfo_E0__1__motorbike.1" vType="motorbike" speedFactor="0.92" vaporized=""/>
    <tripinfo id="E0__1__motorbike.0" depart="80.00" departLane="E0_1" departPos="2.10" departPosLat="0.00" departSpeed="0.00" departDelay="0.72" arrival="107.00" arrivalLane="E2_1" arrivalPos="100.88" arrivalPosLat="0.00" arrivalSpeed="9.00" duration="27.00" routeLength="202.78" waitingTime="0.00" waitingCount="0" stopTime="0.00" timeLoss="5.33" rerouteNo="0" devices="tripinfo_E0__1__motorbike.0" vType="motorbike" speedFactor="0.87" vaporized=""/>
    <tripinfo id="-E1__0__motorbike.0" depart="41.00" departLane="-E1_1" departPos="2.10" departPosLat="0.00" departSpeed="0.00" departDelay="0.46" arrival="112.00" arrivalLane="-E0_3" arrivalPos="76.80" arrivalPosLat="0.00" arrivalSpeed="10.89" duration="71.00" routeLength="206.22" waitingTime="41.00" waitingCount="1" stopTime="0.00" timeLoss="52.14" rerouteNo="0" devices="tripinfo_-E1__0__motorbike.0" vType="motorbike" speedFactor="1.05" vaporized=""/>
    <tripinfo id="-E4__0__motorbike.2" depart="45.00" departLane="-E4_3" departPos="2.10" departPosLat="0.00" departSpeed="0.00" departDelay="0.54" arrival="116.00" arrivalLane="E6_2" arrivalPos="109.06" arrivalPosLat="0.65" arrivalSpeed="10.82" duration="71.00" routeLength="234.81" waitingTime="39.00" waitingCount="1" stopTime="0.00" timeLoss="49.41" rerouteNo="0" devices="tripinfo_-E4__0__motorbike.2" vType="motorbike" speedFactor="0.99" vaporized=""/>
    <tripinfo id="-E4__0__motorbike.1" depart="18.00" departLane="-E4_2" departPos="2.10" departPosLat="0.00" departSpeed="0.00" departDelay="0.63" arrival="117.00" arrivalLane="E6_2" arrivalPos="109.06" arrivalPosLat="-0.85" arrivalSpeed="9.62" duration="99.00" routeLength="234.81" waitingTime="64.00" waitingCount="1" stopTime="0.00" timeLoss="74.34" rerouteNo="0" devices="tripinfo_-E4__0__motorbike.1" vType="motorbike" speedFactor="0.89" vaporized=""/>
    <tripinfo id="-E4__1__motorbike.1" depart="76.00" departLane="-E4_1" departPos="2.10" departPosLat="0.00" departSpeed="0.00" departDelay="0.32" arrival="118.00" arrivalLane="E6_2" arrivalPos="109.06" arrivalPosLat="0.00" arrivalSpeed="9.24" duration="42.00" routeLength="234.81" waitingTime="9.00" waitingCount="1" stopTime="0.00" timeLoss="18.23" rerouteNo="0" devices="tripinfo_-E4__1__motorbike.1" vType="motorbike" speedFactor="0.89" vaporized=""/>
    <tripinfo id="-E4__1__motorbike.0" depart="66.00" departLane="-E4_2" departPos="2.10" departPosLat="0.00" departSpeed="0.00" departDelay="0.32" arrival="130.00" arrivalLane="-E0_1" arrivalPos="76.80" arrivalPosLat="0.00" arrivalSpeed="10.66" duration="64.00" routeLength="364.76" waitingTime="16.00" waitingCount="1" stopTime="0.00" timeLoss="30.26" rerouteNo="0" devices="tripinfo_-E4__1__motorbike.0" vType="motorbike" speedFactor="1.02" vaporized=""/>
    <tripinfo id="-E1__1__motorbike.1" depart="102.00" departLane="-E1_2" departPos="2.10" departPosLat="0.00" departSpeed="0.00" departDelay="0.70" arrival="130.00" arrivalLane="E2_1" arrivalPos="100.88" arrivalPosLat="0.00" arrivalSpeed="10.93" duration="28.00" routeLength="214.82" waitingTime="0.00" waitingCount="0" stopTime="0.00" timeLoss="7.49" rerouteNo="0" devices="tripinfo_-E1__1__motorbike.1" vType="motorbike" speedFactor="1.18" vaporized=""/>
    <tripinfo id="-E4__1__car.0" depart="107.00" departLane="-E4_1" departPos="4.60" departPosLat="0.00" departSpeed="0.00" departDelay="0.98" arrival="138.00" arrivalLane="E5_1" arrivalPos="146.08" arrivalPosLat="0.00" arrivalSpeed="10.45" duration="31.00" routeLength="251.16" waitingTime="0.00" waitingCount="0" stopTime="0.00" timeLoss="7.08" rerouteNo="0" devices="tripinfo_-E4__1__car.0" vType="car" speedFactor="1.15" vaporized=""/>
    <tripinfo id="-E2__0__car.1" depart="29.00" departLane="-E2_3" departPos="4.60" departPosLat="0.00" departSpeed="0.00" departDelay="0.21" arrival="145.00" arrivalLane="-E0_2" arrivalPos="76.80" arrivalPosLat="0.00" arrivalSpeed="10.73" duration="116.00" routeLength="200.28" waitingTime="87.00" waitingCount="1" stopTime="0.00" timeLoss="97.43" rerouteNo="0" devices="tripinfo_-E2__0__car.1" vType="car" speedFactor="1.09" vaporized=""/>
    <tripinfo id="-E2__0__motorbike.0" depart="55.00" departLane="-E2_3" departPos="2.10" departPosLat="0.00" departSpeed="0.00" departDelay="0.06" arrival="147.00" arrivalLane="-E0_2" arrivalPos="76.80" arrivalPosLat="0.00" arrivalSpeed="10.05" duration="92.00" routeLength="202.78" waitingTime="64.00" waitingCount="1" stopTime="0.00" timeLoss="72.23" rerouteNo="0" devices="tripinfo_-E2__0__motorbike.0" vType="motorbike" speedFactor="0.94" vaporized=""/>
    <tripinfo id="-E2__1__car.0" depart="117.00" departLane="-E2_3" departPos="4.60" departPosLat="0.00" departSpeed="0.00" departDelay="0.85" arrival="147.00" arrivalLane="E1_3" arrivalPos="107.01" arrivalPosLat="0.00" arrivalSpeed="10.83" duration="30.00" routeLength="227.80" waitingTime="0.00" waitingCount="0" stopTime="0.00" timeLoss="8.80" rerouteNo="0" devices="tripinfo_-E2__1__car.0" vType="car" speedFactor="1.02" vaporized=""/>
    <tripinfo id="-E5__0__motorbike.0" depart="12.00" departLane="-E5_3" departPos="2.10" departPosLat="0.00" departSpeed="0.00" departDelay="0.97" arrival="148.00" arrivalLane="E4_3" arrivalPos="100.65" arrivalPosLat="0.00" arrivalSpeed="11.02" duration="136.00" routeLength="269.14" waitingTime="100.00" waitingCount="1" stopTime="0.00" timeLoss="110.70" rerouteNo="0" devices="tripinfo_-E5__0__motorbike.0" vType="motorbike" speedFactor="1.03" vaporized=""/>
    <tripinfo id="-E5__1__motorbike.2" depart="84.00" departLane="-E5_3" departPos="2.10" departPosLat="0.00" departSpeed="0.00" departDelay="0.65" arrival="148.00" arrivalLane="E4_3" arrivalPos="100.65" arrivalPosLat="1.15" arrivalSpeed="10.12" duration="64.00" routeLength="269.14" waitingTime="28.00" waitingCount="1" stopTime="0.00" timeLoss="37.87" rerouteNo="0" devices="tripinfo_-E5__1__motorbike.2" vType="motorbike" speedFactor="0.95" vaporized=""/>
    <tripinfo id="-E2__1__motorbike.0" depart="96.00" departLane="-E2_1" departPos="2.10" departPosLat="0.00" departSpeed="0.00" departDelay="0.09" arrival="150.00" arrivalLane="-E0_2" arrivalPos="76.80" arrivalPosLat="0.00" arrivalSpeed="10.23" duration="54.00" routeLength="202.78" waitingTime="23.00" waitingCount="1" stopTime="0.00" timeLoss="33.53" rerouteNo="0" devices="tripinfo_-E2__1__motorbike.0" vType="motorbike" speedFactor="0.93" vaporized=""/>
    <tripinfo id="-E2__1__motorbike.1" depart="109.00" departLane="-E2_3" departPos="2.10" departPosLat="0.00" departSpeed="0.00" departDelay="0.77" arrival="150.00" arrivalLane="-E0_1" arrivalPos="76.80" arrivalPosLat="0.00" arrivalSpeed="10.99" duration="41.00" routeLength="202.78" waitingTime="12.00" waitingCount="1" stopTime="0.00" timeLoss="21.87" rerouteNo="0" devices="tripinfo_-E2__1__motorbike.1" vType="motorbike" speedFactor="1.01" vaporized=""/>
    <tripinfo id="-E6__1__motorbike.0" depart="112.00" departLane="-E6_3" departPos="2.10" departPosLat="0.00" departSpeed="0.00" departDelay="0.48" arrival="154.00" arrivalLane="-E0_1" arrivalPos="76.80" arrivalPosLat="0.00" arrivalSpeed="10.44" duration="42.00" routeLength="357.69" waitingTime="0.00" waitingCount="0" stopTime="0.00" timeLoss="8.43" rerouteNo="0" devices="tripinfo_-E6__1__motorbike.0" vType="motorbike" speedFactor="1.17" vaporized=""/>
    <tripinfo id="-E5__2__car.0" depart="125.00" departLane="-E5_2" departPos="4.60" departPosLat="0.00" departSpeed="0.00" departDelay="0.46" arrival="155.00" arrivalLane="E4_3" arrivalPos="100.65" arrivalPosLat="0.00" arrivalSpeed="11.07" duration="30.00" routeLength="266.64" waitingTime="0.00" waitingCount="0" stopTime="0.00" timeLoss="5.90" rerouteNo="0" devices="tripinfo_-E5__2__car.0" vType="car" speedFactor="1.18" vaporized=""/>
    <tripinfo id="-E2__2__motorbike.0" depart="146.00" departLane="-E2_2" departPos="2.10" departPosLat="0.00" departSpeed="0.00" departDelay="0.78" arrival="170.00" arrivalLane="-E0_2" arrivalPos="76.80" arrivalPosLat="0.00" arrivalSpeed="10.80" duration="24.00" routeLength="202.78" waitingTime="0.00" waitingCount="0" stopTime="0.00" timeLoss="5.35" rerouteNo="0" devices="tripinfo_-E2__2__motorbike.0" vType="motorbike" speedFactor="1.03" vaporized=""/>
    <tripinfo id="E0__2__motorbike.1" depart="154.00" departLane="E0_2" departPos="2.10" departPosLat="0.00" departSpeed="0.00" departDelay="0.34" arrival="179.00" arrivalLane="E1_1" arrivalPos="107.01" arrivalPosLat="0.00" arrivalSpeed="10.64" duration="25.00" routeLength="190.74" waitingTime="0.00" waitingCount="0" stopTime="0.00" timeLoss="7.07" rerouteNo="0" devices="tripinfo_E0__2__motorbike.1" vType="motorbike" speedFactor="1.00" vaporized=""/>
    <tripinfo id="-E4__0__motorbike.0" depart="4.00" departLane="-E4_3" departPos="2.10" departPosLat="0.00" departSpeed="0.00" departDelay="0.42" arrival="180.00" arrivalLane="E2_3" arrivalPos="100.88" arrivalPosLat="0.00" arrivalSpeed="10.39" duration="176.00" routeLength="404.32" waitingTime="122.00" waitingCount="2" stopTime="0.00" timeLoss="139.39" rerouteNo="0" devices="tripinfo_-E4__0__motorbike.0" vType="motorbike" speedFactor="1.06" vaporized=""/>
    <tripinfo id="-E6__1__car.0" depart="65.00" departLane="-E6_2" departPos="4.60" departPosLat="0.00" departSpeed="0.00" departDelay="0.84" arrival="180.00" arrivalLane="E4_2" arrivalPos="100.65" arrivalPosLat="0.00" arrivalSpeed="10.93" duration="115.00" routeLength="232.31" waitingTime="84.00" waitingCount="1" stopTime="0.00" timeLoss="94.01" rerouteNo="0" devices="tripinfo_-E6__1__car.0" vType="car" speedFactor="1.16" vaporized=""/>
    <tripinfo id="-E5__0__car.0" depart="41.00" departLane="-E5_1" departPos="4.60" departPosLat="0.00" departSpeed="0.00" departDelay="0.15" arrival="183.00" arrivalLane="E2_3" arrivalPos="100.88" arrivalPosLat="0.00" arrivalSpeed="10.60" duration="142.00" routeLength="449.94" waitingTime="82.00" waitingCount="2" stopTime="0.00" timeLoss="101.15" rerouteNo="0" devices="tripinfo_-E5__0__car.0" vType="car" speedFactor="1.12" vaporized=""/>
    <tripinfo id="-E6__1__motorbike.1" depart="114.00" departLane="-E6_2" departPos="2.10" departPosLat="0.00" departSpeed="0.00" departDelay="0.55" arrival="183.00" arrivalLane="E4_2" arrivalPos="100.65" arrivalPosLat="0.00" arrivalSpeed="10.59" duration="69.00" routeLength="234.81" waitingTime="36.00" waitingCount="1" stopTime="0.00" timeLoss="47.04" rerouteNo="0" devices="tripinfo_-E6__1__motorbike.1" vType="motorbike" speedFactor="0.99" vaporized=""/>
    <tripinfo id="-E5__1__motorbike.1" depart="77.00" departLane="-E5_3" departPos="2.10" departPosLat="0.00" departSpeed="0.00" departDelay="0.25" arrival="184.00" arrivalLane="E1_2" arrivalPos="107.01" arrivalPosLat="0.00" arrivalSpeed="8.94" duration="107.00" routeLength="461.26" waitingTime="40.00" waitingCount="2" stopTime="0.00" timeLoss="55.77" rerouteNo="0" devices="tripinfo_-E5__1__motorbike.1" vType="motorbike" speedFactor="0.83" vaporized=""/>
    <tripinfo id="-E5__1__motorbike.0" depart="61.00" departLane="-E5_1" departPos="2.10" departPosLat="0.00" departSpeed="0.00" departDelay="0.16" arrival="185.00" arrivalLane="E2_3" arrivalPos="100.88" arrivalPosLat="0.00" arrivalSpeed="9.98" duration="124.00" routeLength="452.44" waitingTime="60.00" waitingCount="2" stopTime="0.00" timeLoss="80.22" rerouteNo="0" devices="tripinfo_-E5__1__motorbike.0" vType="motorbike" speedFactor="0.94" vaporized=""/>
    <tripinfo id="-E6__2__car.0" depart="121.00" departLane="-E6_2" departPos="4.60" departPosLat="0.00" departSpeed="0.00" departDelay="0.97" arrival="186.00" arrivalLane="E5_3" arrivalPos="146.08" arrivalPosLat="0.00" arrivalSpeed="10.36" duration="65.00" routeLength="275.05" waitingTime="26.00" waitingCount="1" stopTime="0.00" timeLoss="38.50" rerouteNo="0" devices="tripinfo_-E6__2__car.0" vType="car" speedFactor="0.97" vaporized=""/>
    <tripinfo id="-E6__2__car.1" depart="170.00" departLane="-E6_3" departPos="4.60" departPosLat="0.00" departSpeed="0.00" departDelay="0.86" arrival="201.00" arrivalLane="E5_3" arrivalPos="146.08" arrivalPosLat="0.00" arrivalSpeed="10.70" duration="31.00" routeLength="275.05" waitingTime="0.00" waitingCount="0" stopTime="0.00" timeLoss="5.83" rerouteNo="0" devices="tripinfo_-E6__2__car.1" vType="car" speedFactor="1.17" vaporized=""/>
    <tripinfo id="-E6__2__motorbike.0" depart="178.00" departLane="-E6_3" departPos="2.10" departPosLat="0.00" departSpeed="0.00" departDelay="0.11" arrival="208.00" arrivalLane="E5_3" arrivalPos="146.08" arrivalPosLat="0.00" arrivalSpeed="10.76" duration="30.00" routeLength="277.55" waitingTime="0.00" waitingCount="0" stopTime="0.00" timeLoss="4.62" rerouteNo="0" devices="tripinfo_-E6__2__motorbike.0" vType="motorbike" speedFactor="1.02" vaporized=""/>
    <tripinfo id="E0__2__motorbike.0" depart="128.00" departLane="E0_2" departPos="2.10" departPosLat="0.00" departSpeed="0.00" departDelay="0.05" arrival="215.00" arrivalLane="E2_2" arrivalPos="100.88" arrivalPosLat="0.00" arrivalSpeed="9.99" duration="87.00" routeLength="202.78" waitingTime="56.00" waitingCount="1" stopTime="0.00" timeLoss="65.75" rerouteNo="0" devices="tripinfo_E0__2__motorbike.0" vType="motorbike" speedFactor="0.90" vaporized=""/>
    <tripinfo id="E0__2__motorbike.2" depart="167.00" departLane="E0_1" departPos="2.10" departPosLat="0.00" departSpeed="0.00" departDelay="0.98" arrival="215.00" arrivalLane="E2_2" arrivalPos="100.88" arrivalPosLat="-1.15" arrivalSpeed="9.30" duration="48.00" routeLength="202.78" waitingTime="14.00" waitingCount="1" stopTime="0.00" timeLoss="26.53" rerouteNo="0" devices="tripinfo_E0__2__motorbike.2" vType="motorbike" speedFactor="0.85" vaporized=""/>
    <tripinfo id="-E1__0__car.0" depart="27.00" departLane="-E1_2" departPos="4.60" departPosLat="0.00" departSpeed="0.00" departDelay="0.30" arrival="216.00" arrivalLane="E6_3" arrivalPos="109.06" arrivalPosLat="0.00" arrivalSpeed="9.29" duration="189.00" routeLength="419.05" waitingTime="126.00" waitingCount="2" stopTime="0.00" timeLoss="144.22" rerouteNo="0" devices="tripinfo_-E1__0__car.0" vType="car" speedFactor="0.86" vaporized=""/>
    <tripinfo id="-E1__0__car.1" depart="37.00" departLane="-E1_1" departPos="4.60" departPosLat="0.00" departSpeed="0.00" departDelay="0.21" arrival="217.00" arrivalLane="E6_3" arrivalPos="109.06" arrivalPosLat="0.00" arrivalSpeed="10.60" duration="180.00" routeLength="419.05" waitingTime="119.00" waitingCount="2" stopTime="0.00" timeLoss="142.12" rerouteNo="0" devices="tripinfo_-E1__0__car.1" vType="car" speedFactor="1.03" vaporized=""/>
    <tripinfo id="-E1__1__car.0" depart="68.00" departLane="-E1_3" departPos="4.60" departPosLat="0.00" departSpeed="0.00" departDelay="0.29" arrival="218.00" arrivalLane="E5_2" arrivalPos="146.08" arrivalPosLat="0.00" arrivalSpeed="10.55" duration="150.00" routeLength="458.76" waitingTime="87.00" waitingCount="2" stopTime="0.00" timeLoss="107.90" rerouteNo="0" devices="tripinfo_-E1__1__car.0" vType="car" speedFactor="1.01" vaporized=""/>
    <tripinfo id="-E1__1__motorbike.0" depart="71.00" departLane="-E1_1" departPos="2.10" departPosLat="0.00" departSpeed="0.00" departDelay="0.18" arrival="219.00" arrivalLane="E6_3" arrivalPos="109.06" arrivalPosLat="0.00" arrivalSpeed="10.26" duration="148.00" routeLength="421.55" waitingTime="87.00" waitingCount="2" stopTime="0.00" timeLoss="108.42" rerouteNo="0" devices="tripinfo_-E1__1__motorbike.0" vType="motorbike" speedFactor="0.97" vaporized=""/>
    <tripinfo id="E0__3__car.1" depart="196.00" departLane="E0_3" departPos="4.60" departPosLat="0.00" departSpeed="0.00" departDelay="0.92" arrival="220.00" arrivalLane="E2_2" arrivalPos="100.88" arrivalPosLat="0.00" arrivalSpeed="10.55" duration="24.00" routeLength="200.28" waitingTime="0.00" waitingCount="0" stopTime="0.00" timeLoss="5.04" rerouteNo="0" devices="tripinfo_E0__3__car.1" vType="car" speedFactor="1.08" vaporized=""/>
    <tripinfo id="E0__1__motorbike.2" depart="87.00" departLane="E0_2" departPos="2.10" departPosLat="0.00" departSpeed="0.00" departDelay="0.05" arrival="235.00" arrivalLane="E5_2" arrivalPos="146.08" arrivalPosLat="0.00" arrivalSpeed="11.03" duration="148.00" routeLength="428.36" waitingTime="97.00" waitingCount="1" stopTime="0.00" timeLoss="108.93" rerouteNo="0" devices="tripinfo_E0__1__motorbike.2" vType="motorbike" speedFactor="1.13" vaporized=""/>
    <tripinfo id="E0__3__car.0" depart="190.00" departLane="E0_2" departPos="4.60" departPosLat="0.00" departSpeed="0.00" departDelay="0.69" arrival="238.00" arrivalLane="E6_3" arrivalPos="109.06" arrivalPosLat="0.00" arrivalSpeed="9.86" duration="48.00" routeLength="386.15" waitingTime="0.00" waitingCount="0" stopTime="0.00" timeLoss="8.59" rerouteNo="0" devices="tripinfo_E0__3__car.0" vType="car" speedFactor="0.90" vaporized=""/>
    <tripinfo id="-E1__2__car.0" depart="126.00" departLane="-E1_3" departPos="4.60" departPosLat="0.00" departSpeed="0.00" departDelay="0.01" arrival="245.00" arrivalLane="-E0_3" arrivalPos="76.80" arrivalPosLat="0.00" arrivalSpeed="10.60" duration="119.00" routeLength="203.72" waitingTime="88.00" waitingCount="1" stopTime="0.00" timeLoss="100.00" rerouteNo="0" devices="tripinfo_-E1__2__car.0" vType="car" speedFactor="1.10" vaporized=""/>
    <tripinfo id="-E4__2__car.0" depart="147.00" departLane="-E4_2" departPos="4.60" departPosLat="0.00" departSpeed="0.00" departDelay="0.60" arrival="248.00" arrivalLane="E6_2" arrivalPos="109.06" arrivalPosLat="0.00" arrivalSpeed="10.97" duration="101.00" routeLength="232.31" waitingTime="68.00" waitingCount="1" stopTime="0.00" timeLoss="79.52" rerouteNo="0" devices="tripinfo_-E4__2__car.0" vType="car" speedFactor="1.09" vaporized=""/>
    <tripinfo id="-E4__2__motorbike.0" depart="147.00" departLane="-E4_3" departPos="2.10" departPosLat="0.00" departSpeed="0.00" departDelay="0.77" arrival="250.00" arrivalLane="E6_2" arrivalPos="109.06" arrivalPosLat="0.00" arrivalSpeed="10.36" duration="103.00" routeLength="234.81" waitingTime="68.00" waitingCount="1" stopTime="0.00" timeLoss="80.78" rerouteNo="0" devices="tripinfo_-E4__2__motorbike.0" vType="motorbike" speedFactor="0.96" vaporized=""/>
    <tripinfo id="-E4__3__car.1" depart="226.00" departLane="-E4_3" departPos="4.60" departPosLat="0.00" departSpeed="0.00" departDelay="0.10" arrival="253.00" arrivalLane="E6_2" arrivalPos="109.06" arrivalPosLat="0.00" arrivalSpeed="10.38" duration="27.00" routeLength="232.31" waitingTime="0.00" waitingCount="0" stopTime="0.00" timeLoss="5.73" rerouteNo="0" devices="tripinfo_-E4__3__car.1" vType="car" speedFactor="1.04" vaporized=""/>
    <tripinfo id="-E1__3__car.0" depart="234.00" departLane="-E1_3" departPos="4.60" departPosLat="0.00" departSpeed="0.00" departDelay="0.53" arrival="260.00" arrivalLane="-E0_3" arrivalPos="76.80" arrivalPosLat="0.00" arrivalSpeed="10.39" duration="26.00" routeLength="203.72" waitingTime="0.00" waitingCount="0" stopTime="0.00" timeLoss="6.72" rerouteNo="0" devices="tripinfo_-E1__3__car.0" vType="car" speedFactor="1.02" vaporized=""/>
    <tripinfo id="-E1__2__motorbike.0" depart="149.00" departLane="-E1_1" departPos="2.10" departPosLat="0.00" departSpeed="0.00" departDelay="0.71" arrival="264.00" arrivalLane="E4_1" arrivalPos="100.65" arrivalPosLat="0.00" arrivalSpeed="10.37" duration="115.00" routeLength="397.66" waitingTime="65.00" waitingCount="1" stopTime="0.00" timeLoss="78.06" rerouteNo="0" devices="tripinfo_-E1__2__motorbike.0" vType="motorbike" speedFactor="1.04" vaporized=""/>
    <tripinfo id="-E4__2__motorbike.1" depart="160.00" departLane="-E4_1" departPos="2.10" departPosLat="0.00" departSpeed="0.00" departDelay="0.85" arrival="266.00" arrivalLane="-E0_1" arrivalPos="76.80" arrivalPosLat="0.00" arrivalSpeed="9.53" duration="106.00" routeLength="364.76" waitingTime="55.00" waitingCount="1" stopTime="0.00" timeLoss="68.65" rerouteNo="0" devices="tripinfo_-E4__2__motorbike.1" vType="motorbike" speedFactor="0.90" vaporized=""/>
    <tripinfo id="-E1__2__car.1" depart="164.00" departLane="-E1_2" departPos="4.60" departPosLat="0.00" departSpeed="0.00" departDelay="0.81" arrival="269.00" arrivalLane="E4_1" arrivalPos="100.65" arrivalPosLat="0.00" arrivalSpeed="9.58" duration="105.00" routeLength="395.16" waitingTime="51.00" waitingCount="1" stopTime="0.00" timeLoss="63.41" rerouteNo="0" devices="tripinfo_-E1__2__car.1" vType="car" speedFactor="0.88" vaporized=""/>
    <tripinfo id="-E2__3__motorbike.0" depart="199.00" departLane="-E2_3" departPos="2.10" departPosLat="0.00" departSpeed="0.00" departDelay="0.16" arrival="277.00" arrivalLane="-E0_2" arrivalPos="76.80" arrivalPosLat="0.00" arrivalSpeed="10.60" duration="78.00" routeLength="202.78" waitingTime="48.00" waitingCount="1" stopTime="0.00" timeLoss="59.34" rerouteNo="0" devices="tripinfo_-E2__3__motorbike.0" vType="motorbike" speedFactor="0.99" vaporized=""/>
    <tripinfo id="-E2__3__motorbike.2" depart="224.00" departLane="-E2_1" departPos="2.10" departPosLat="0.00" departSpeed="0.00" departDelay="0.72" arrival="279.00" arrivalLane="-E0_2" arrivalPos="76.80" arrivalPosLat="-1.15" arrivalSpeed="9.68" duration="55.00" routeLength="202.78" waitingTime="20.00" waitingCount="1" stopTime="0.00" timeLoss="34.22" rerouteNo="0" devices="tripinfo_-E2__3__motorbike.2" vType="motorbike" speedFactor="0.91" vaporized=""/>
    <tripinfo id="-E2__4__motorbike.0" depart="249.00" departLane="-E2_1" departPos="2.10" departPosLat="0.00" departSpeed="0.00" departDelay="0.18" arrival="279.00" arrivalLane="-E0_2" arrivalPos="76.80" arrivalPosLat="0.00" arrivalSpeed="11.00" duration="30.00" routeLength="202.78" waitingTime="1.00" waitingCount="1" stopTime="0.00" timeLoss="11.58" rerouteNo="0" devices="tripinfo_-E2__4__motorbike.0" vType="motorbike" speedFactor="1.06" vaporized=""/>
    <tripinfo id="-E5__3__car.0" depart="184.00" departLane="-E5_3" departPos="4.60" departPosLat="0.00" departSpeed="0.00" departDelay="0.57" arrival="280.00" arrivalLane="E4_3" arrivalPos="100.65" arrivalPosLat="0.00" arrivalSpeed="10.69" duration="96.00" routeLength="266.64" waitingTime="58.00" waitingCount="1" stopTime="0.00" timeLoss="71.21" rerouteNo="0" devices="tripinfo_-E5__3__car.0" vType="car" speedFactor="1.00" vaporized=""/>
    <tripinfo id="-E2__2__car.0" depart="152.00" departLane="-E2_2" departPos="4.60" departPosLat="0.00" departSpeed="0.00" departDelay="0.92" arrival="281.00" arrivalLane="E1_3" arrivalPos="107.01" arrivalPosLat="0.00" arrivalSpeed="10.48" duration="129.00" routeLength="227.80" waitingTime="96.00" waitingCount="1" stopTime="0.00" timeLoss="107.68" rerouteNo="0" devices="tripinfo_-E2__2__car.0" vType="car" speedFactor="1.09" vaporized=""/>
    <tripinfo id="-E5__4__car.0" depart="249.00" departLane="-E5_1" departPos="4.60" departPosLat="0.00" departSpeed="0.00" departDelay="0.21" arrival="282.00" arrivalLane="E4_3" arrivalPos="100.65" arrivalPosLat="0.00" arrivalSpeed="10.00" duration="33.00" routeLength="266.64" waitingTime="0.00" waitingCount="0" stopTime="0.00" timeLoss="7.26" rerouteNo="0" devices="tripinfo_-E5__4__car.0" vType="car" speedFactor="0.94" vaporized=""/>
    <tripinfo id="-E2__2__motorbike.1" depart="169.00" departLane="-E2_1" departPos="2.10" departPosLat="0.00" departSpeed="0.00" departDelay="0.86" arrival="284.00" arrivalLane="E1_3" arrivalPos="107.01" arrivalPosLat="0.00" arrivalSpeed="8.91" duration="115.00" routeLength="230.30" waitingTime="79.00" waitingCount="1" stopTime="0.00" timeLoss="89.72" rerouteNo="0" devices="tripinfo_-E2__2__motorbike.1" vType="motorbike" speedFactor="0.85" vaporized=""/>
    <tripinfo id="-E2__3__motorbike.1" depart="210.00" departLane="-E2_1" departPos="2.10" departPosLat="0.00" departSpeed="0.00" departDelay="0.17" arrival="285.00" arrivalLane="E1_3" arrivalPos="107.01" arrivalPosLat="0.00" arrivalSpeed="9.28" duration="75.00" routeLength="230.30" waitingTime="40.00" waitingCount="1" stopTime="0.00" timeLoss="50.80" rerouteNo="0" devices="tripinfo_-E2__3__motorbike.1" vType="motorbike" speedFactor="0.88" vaporized=""/>
    <tripinfo id="-E5__2__motorbike.1" depart="180.00" departLane="-E5_3" departPos="2.10" departPosLat="0.00" departSpeed="0.00" departDelay="0.22" arrival="296.00" arrivalLane="-E0_1" arrivalPos="76.80" arrivalPosLat="0.00" arrivalSpeed="10.94" duration="116.00" routeLength="412.88" waitingTime="63.00" waitingCount="1" stopTime="0.00" timeLoss="77.82" rerouteNo="0" devices="tripinfo_-E5__2__motorbike.1" vType="motorbike" speedFactor="1.10" vaporized=""/>