<?xml version="1.0" encoding="UTF-8"?>

<!-- generated on 2026-06-21 12:43:27 by Eclipse SUMO GUI Version 1.18.0
<configuration xmlns:xsi="http://www.w3.org/2001/XMLSchema-instance" xsi:noNamespaceSchemaLocation="http://sumo.dlr.de/xsd/sumoConfiguration.xsd">

    <input>
        <net-file value="./Scenario/4nodes/env/4nodes.net.xml"/>
        <route-files value="./Scenario/4nodes/env/../routes/vehicle.rou.xml"/>
        <additional-files value="./Scenario/4nodes/env/../add/tls.add.xml,./Scenario/4nodes/env/ ../add/e2.add.xml"/>
    </input>

    <output>
        <netstate-dump value="./Scenario/4nodes/env/../output/e2.netstate.xml"/>
        <netstate-dump.precision value="2"/>
        <summary-output value="./Scenario/4nodes/env/../output/e2_summary.output.xml"/>
        <tripinfo-output value="./Scenario/4nodes/env/../output/e2.tripinfo.xml"/>
    </output>

    <time>
        <begin value="0"/>
        <end value="504"/>
        <step-length value="1.0"/>
    </time>

    <processing>
        <lateral-resolution value="0.2"/>
    </processing>

</configuration>
-->

<tripinfos xmlns:xsi="http://www.w3.org/2001/XMLSchema-instance" xsi:noNamespaceSchemaLocation="http://sumo.dlr.de/xsd/tripinfo_file.xsd">
    <tripinfo id="-E4__0__motorbike.1" depart="1.00" departLane="-E4_1" departPos="2.10" departPosLat="0.00" departSpeed="0.00" departDelay="0.81" arrival="37.00" arrivalLane="E5_3" arrivalPos="170.02" arrivalPosLat="0.00" arrivalSpeed="11.03" duration="36.00" routeLength="336.26" waitingTime="0.00" waitingCount="0" stopTime="0.00" timeLoss="5.60" rerouteNo="0" devices="tripinfo_-E4__0__motorbike.1" vType="motorbike" speedFactor="1.08" vaporized=""/>
    <tripinfo id="-E5__0__motorbike.0" depart="1.00" departLane="-E5_3" departPos="2.10" departPosLat="0.00" departSpeed="0.00" departDelay="0.98" arrival="39.00" arrivalLane="E4_1" arrivalPos="143.61" arrivalPosLat="0.00" arrivalSpeed="10.63" duration="38.00" routeLength="320.87" waitingTime="0.00" waitingCount="0" stopTime="0.00" timeLoss="7.89" rerouteNo="0" devices="tripinfo_-E5__0__motorbike.0" vType="motorbike" speedFactor="1.06" vaporized=""/>
    <tripinfo id="-E4__0__motorbike.2" depart="3.00" departLane="-E4_1" departPos="2.10" departPosLat="0.00" departSpeed="0.00" departDelay="1.28" arrival="39.00" arrivalLane="E5_3" arrivalPos="170.02" arrivalPosLat="0.00" arrivalSpeed="11.03" duration="36.00" routeLength="336.26" waitingTime="0.00" waitingCount="0" stopTime="0.00" timeLoss="5.70" rerouteNo="0" devices="tripinfo_-E4__0__motorbike.2" vType="motorbike" speedFactor="1.09" vaporized=""/>
    <tripinfo id="-E4__0__motorbike.0" depart="1.00" departLane="-E4_3" departPos="2.10" departPosLat="0.00" departSpeed="0.00" departDelay="0.91" arrival="42.00" arrivalLane="E5_3" arrivalPos="170.02" arrivalPosLat="0.00" arrivalSpeed="10.99" duration="41.00" routeLength="336.26" waitingTime="1.00" waitingCount="1" stopTime="0.00" timeLoss="10.52" rerouteNo="0" devices="tripinfo_-E4__0__motorbike.0" vType="motorbike" speedFactor="1.01" vaporized=""/>
    <tripinfo id="E0__0__motorbike.2" depart="8.00" departLane="E0_1" departPos="2.10" departPosLat="0.00" departSpeed="0.00" departDelay="1.20" arrival="43.00" arrivalLane="E1_1" arrivalPos="164.31" arrivalPosLat="0.00" arrivalSpeed="10.57" duration="35.00" routeLength="302.09" waitingTime="0.00" waitingCount="0" stopTime="0.00" timeLoss="6.94" rerouteNo="0" devices="tripinfo_E0__0__motorbike.2" vType="motorbike" speedFactor="1.15" vaporized=""/>
    <tripinfo id="-E5__0__motorbike.4" depart="9.00" departLane="-E5_3" departPos="2.10" departPosLat="0.00" departSpeed="0.00" departDelay="0.54" arrival="46.00" arrivalLane="E4_1" arrivalPos="143.61" arrivalPosLat="0.00" arrivalSpeed="10.77" duration="37.00" routeLength="320.87" waitingTime="0.00" waitingCount="0" stopTime="0.00" timeLoss="7.51" rerouteNo="0" devices="tripinfo_-E5__0__motorbike.4" vType="motorbike" speedFactor="1.18" vaporized=""/>
    <tripinfo id="-E4__0__motorbike.5" depart="11.00" departLane="-E4_1" departPos="2.10" departPosLat="0.00" departSpeed="0.00" departDelay="0.83" arrival="47.00" arrivalLane="E5_3" arrivalPos="170.02" arrivalPosLat="0.00" arrivalSpeed="10.82" duration="36.00" routeLength="336.26" waitingTime="0.00" waitingCount="0" stopTime="0.00" timeLoss="5.48" rerouteNo="0" devices="tripinfo_-E4__0__motorbike.5" vType="motorbike" speedFactor="1.00" vaporized=""/>
    <tripinfo id="-E5__0__motorbike.6" depart="10.00" departLane="-E5_1" departPos="2.10" departPosLat="0.00" departSpeed="0.00" departDelay="0.41" arrival="49.00" arrivalLane="E4_2" arrivalPos="143.61" arrivalPosLat="0.00" arrivalSpeed="10.89" duration="39.00" routeLength="320.87" waitingTime="0.00" waitingCount="0" stopTime="0.00" timeLoss="9.14" rerouteNo="0" devices="tripinfo_-E5__0__motorbike.6" vType="motorbike" speedFactor="1.04" vaporized=""/>
    <tripinfo id="-E9__0__motorbike.1" depart="3.00" departLane="-E9_2" departPos="2.10" departPosLat="0.00" departSpeed="0.00" departDelay="0.27" arrival="50.00" arrivalLane="E8_1" arrivalPos="201.31" arrivalPosLat="0.00" arrivalSpeed="11.03" duration="47.00" routeLength="421.26" waitingTime="0.00" waitingCount="0" stopTime="0.00" timeLoss="7.98" rerouteNo="0" devices="tripinfo_-E9__0__motorbike.1" vType="motorbike" speedFactor="1.12" vaporized=""/>
    <tripinfo id="-E9__0__car.0" depart="6.00" departLane="-E9_1" departPos="4.60" departPosLat="0.00" departSpeed="0.00" departDelay="1.58" arrival="52.00" arrivalLane="E8_2" arrivalPos="201.31" arrivalPosLat="0.00" arrivalSpeed="11.04" duration="46.00" routeLength="418.76" waitingTime="0.00" waitingCount="0" stopTime="0.00" timeLoss="6.65" rerouteNo="0" devices="tripinfo_-E9__0__car.0" vType="car" speedFactor="1.01" vaporized=""/>
    <tripinfo id="-E11__0__car.0" depart="4.00" departLane="-E11_1" departPos="4.60" departPosLat="0.00" departSpeed="0.00" departDelay="0.40" arrival="57.00" arrivalLane="E10_1" arrivalPos="216.74" arrivalPosLat="0.00" arrivalSpeed="10.38" duration="53.00" routeLength="495.36" waitingTime="0.00" waitingCount="0" stopTime="0.00" timeLoss="7.42" rerouteNo="0" devices="tripinfo_-E11__0__car.0" vType="car" speedFactor="1.16" vaporized=""/>
    <tripinfo id="E0__0__car.3" depart="9.00" departLane="E0_3" departPos="4.60" departPosLat="0.00" departSpeed="0.00" departDelay="1.29" arrival="57.00" arrivalLane="E1_2" arrivalPos="164.31" arrivalPosLat="0.00" arrivalSpeed="10.42" duration="48.00" routeLength="299.59" waitingTime="1.00" waitingCount="1" stopTime="0.00" timeLoss="20.48" rerouteNo="0" devices="tripinfo_E0__0__car.3" vType="car" speedFactor="1.02" vaporized=""/>
    <tripinfo id="-E8__0__motorbike.3" depart="7.00" departLane="-E8_2" departPos="2.10" departPosLat="0.00" departSpeed="0.00" departDelay="1.98" arrival="59.00" arrivalLane="E9_2" arrivalPos="212.89" arrivalPosLat="0.00" arrivalSpeed="9.68" duration="52.00" routeLength="437.18" waitingTime="0.00" waitingCount="0" stopTime="0.00" timeLoss="6.19" rerouteNo="0" devices="tripinfo_-E8__0__motorbike.3" vType="motorbike" speedFactor="0.87" vaporized=""/>
    <tripinfo id="-E8__0__motorbike.1" depart="5.00" departLane="-E8_3" departPos="2.10" departPosLat="0.00" departSpeed="0.00" departDelay="1.53" arrival="61.00" arrivalLane="E9_2" arrivalPos="212.89" arrivalPosLat="0.00" arrivalSpeed="9.15" duration="56.00" routeLength="437.18" waitingTime="1.00" waitingCount="1" stopTime="0.00" timeLoss="10.74" rerouteNo="0" devices="tripinfo_-E8__0__motorbike.1" vType="motorbike" speedFactor="0.88" vaporized=""/>
    <tripinfo id="E0__0__motorbike.6" depart="16.00" departLane="E0_3" departPos="2.10" departPosLat="0.00" departSpeed="0.00" departDelay="0.07" arrival="61.00" arrivalLane="E1_2" arrivalPos="164.31" arrivalPosLat="0.00" arrivalSpeed="10.68" duration="45.00" routeLength="302.09" waitingTime="0.00" waitingCount="0" stopTime="0.00" timeLoss="15.62" rerouteNo="0" devices="tripinfo_E0__0__motorbike.6" vType="motorbike" speedFactor="0.97" vaporized=""/>
    <tripinfo id="E0__0__motorbike.1" depart="11.00" departLane="E0_3" departPos="2.10" departPosLat="0.00" departSpeed="0.00" departDelay="4.46" arrival="62.00" arrivalLane="E1_1" arrivalPos="164.31" arrivalPosLat="0.00" arrivalSpeed="11.10" duration="51.00" routeLength="302.09" waitingTime="2.00" waitingCount="2" stopTime="0.00" timeLoss="23.29" rerouteNo="0" devices="tripinfo_E0__0__motorbike.1" vType="motorbike" speedFactor="1.18" vaporized=""/>
    <tripinfo id="-E8__0__motorbike.6" depart="9.00" departLane="-E8_3" departPos="2.10" departPosLat="0.00" departSpeed="0.00" departDelay="1.60" arrival="62.00" arrivalLane="E9_3" arrivalPos="212.89" arrivalPosLat="0.00" arrivalSpeed="10.66" duration="53.00" routeLength="437.18" waitingTime="0.00" waitingCount="0" stopTime="0.00" timeLoss="13.08" rerouteNo="0" devices="tripinfo_-E8__0__motorbike.6" vType="motorbike" speedFactor="1.17" vaporized=""/>
    <tripinfo id="-E9__0__motorbike.2" depart="11.00" departLane="-E9_3" departPos="2.10" departPosLat="0.00" departSpeed="0.00" departDelay="0.76" arrival="62.00" arrivalLane="E8_1" arrivalPos="201.31" arrivalPosLat="0.00" arrivalSpeed="9.47" duration="51.00" routeLength="421.26" waitingTime="0.00" waitingCount="0" stopTime="0.00" timeLoss="7.36" rerouteNo="0" devices="tripinfo_-E9__0__motorbike.2" vType="motorbike" speedFactor="0.90" vaporized=""/>
    <tripinfo id="-E8__0__motorbike.4" depart="7.00" departLane="-E8_3" departPos="2.10" departPosLat="0.00" departSpeed="0.00" departDelay="1.66" arrival="63.00" arrivalLane="E9_2" arrivalPos="212.89" arrivalPosLat="1.20" arrivalSpeed="10.00" duration="56.00" routeLength="437.18" waitingTime="0.00" waitingCount="0" stopTime="0.00" timeLoss="12.27" rerouteNo="0" devices="tripinfo_-E8__0__motorbike.4" vType="motorbike" speedFactor="0.92" vaporized=""/>
    <tripinfo id="-E8__0__motorbike.9" depart="13.00" departLane="-E8_1" departPos="2.10" departPosLat="0.00" departSpeed="0.00" departDelay="0.00" arrival="63.00" arrivalLane="E9_2" arrivalPos="212.89" arrivalPosLat="0.00" arrivalSpeed="10.79" duration="50.00" routeLength="437.18" waitingTime="0.00" waitingCount="0" stopTime="0.00" timeLoss="10.14" rerouteNo="0" devices="tripinfo_-E8__0__motorbike.9" vType="motorbike" speedFactor="1.02" vaporized=""/>
    <tripinfo id="-E5__0__motorbike.11" depart="25.00" departLane="-E5_1" departPos="2.10" departPosLat="0.00" departSpeed="0.00" departDelay="1.62" arrival="64.00" arrivalLane="E4_1" arrivalPos="143.61" arrivalPosLat="0.00" arrivalSpeed="10.04" duration="39.00" routeLength="320.87" waitingTime="0.00" waitingCount="0" stopTime="0.00" timeLoss="7.43" rerouteNo="0" devices="tripinfo_-E5__0__motorbike.11" vType="motorbike" speedFactor="0.95" vaporized=""/>
    <tripinfo id="-E5__0__motorbike.12" depart="26.00" departLane="-E5_2" departPos="2.10" departPosLat="0.00" departSpeed="0.00" departDelay="2.00" arrival="64.00" arrivalLane="E4_2" arrivalPos="143.61" arrivalPosLat="0.00" arrivalSpeed="10.86" duration="38.00" routeLength="320.87" waitingTime="0.00" waitingCount="0" stopTime="0.00" timeLoss="7.95" rerouteNo="0" devices="tripinfo_-E5__0__motorbike.12" vType="motorbike" speedFactor="1.07" vaporized=""/>
    <tripinfo id="-E8__0__car.0" depart="16.00" departLane="-E8_2" departPos="4.60" departPosLat="0.00" departSpeed="0.00" departDelay="2.10" arrival="65.00" arrivalLane="E9_3" arrivalPos="212.89" arrivalPosLat="0.00" arrivalSpeed="10.76" duration="49.00" routeLength="434.68" waitingTime="0.00" waitingCount="0" stopTime="0.00" timeLoss="8.91" rerouteNo="0" devices="tripinfo_-E8__0__car.0" vType="car" speedFactor="0.99" vaporized=""/>
    <tripinfo id="E0__0__car.7" depart="25.00" departLane="E0_1" departPos="4.60" departPosLat="0.00" departSpeed="0.00" departDelay="1.65" arrival="65.00" arrivalLane="E1_2" arrivalPos="164.31" arrivalPosLat="0.00" arrivalSpeed="10.37" duration="40.00" routeLength="299.59" waitingTime="0.00" waitingCount="0" stopTime="0.00" timeLoss="10.60" rerouteNo="0" devices="tripinfo_E0__0__car.7" vType="car" speedFactor="0.97" vaporized=""/>
    <tripinfo id="E0__0__motorbike.7" depart="18.00" departLane="E0_3" departPos="2.10" departPosLat="0.00" departSpeed="0.00" departDelay="0.63" arrival="66.00" arrivalLane="E1_2" arrivalPos="164.31" arrivalPosLat="0.00" arrivalSpeed="10.93" duration="48.00" routeLength="302.09" waitingTime="1.00" waitingCount="1" stopTime="0.00" timeLoss="19.75" rerouteNo="0" devices="tripinfo_E0__0__motorbike.7" vType="motorbike" speedFactor="1.03" vaporized=""/>
    <tripinfo id="-E11__0__car.1" depart="12.00" departLane="-E11_3" departPos="4.60" departPosLat="0.00" departSpeed="0.00" departDelay="2.74" arrival="69.00" arrivalLane="E10_1" arrivalPos="216.74" arrivalPosLat="0.20" arrivalSpeed="10.02" duration="57.00" routeLength="495.36" waitingTime="0.00" waitingCount="0" stopTime="0.00" timeLoss="9.39" rerouteNo="0" devices="tripinfo_-E11__0__car.1" vType="car" speedFactor="0.96" vaporized=""/>
    <tripinfo id="-E4__0__motorbike.4" depart="5.00" departLane="-E4_2" departPos="2.10" departPosLat="0.00" departSpeed="0.00" departDelay="0.16" arrival="70.00" arrivalLane="-E0_1" arrivalPos="130.83" arrivalPosLat="0.00" arrivalSpeed="9.52" duration="65.00" routeLength="516.94" waitingTime="0.00" waitingCount="0" stopTime="0.00" timeLoss="11.38" rerouteNo="0" devices="tripinfo_-E4__0__motorbike.4" vType="motorbike" speedFactor="0.89" vaporized=""/>
    <tripinfo id="E0__0__motorbike.12" depart="29.00" departLane="E0_3" departPos="2.10" departPosLat="0.00" departSpeed="0.00" departDelay="2.05" arrival="70.00" arrivalLane="E1_2" arrivalPos="164.31" arrivalPosLat="0.00" arrivalSpeed="10.58" duration="41.00" routeLength="302.09" waitingTime="0.00" waitingCount="0" stopTime="0.00" timeLoss="12.95" rerouteNo="0" devices="tripinfo_E0__0__motorbike.12" vType="motorbike" speedFactor="1.02" vaporized=""/>
    <tripinfo id="-E8__0__motorbike.5" depart="9.00" departLane="-E8_1" departPos="2.10" departPosLat="0.00" departSpeed="0.00" departDelay="2.15" arrival="71.00" arrivalLane="E5_2" arrivalPos="170.02" arrivalPosLat="0.00" arrivalSpeed="10.83" duration="62.00" routeLength="541.19" waitingTime="0.00" waitingCount="0" stopTime="0.00" timeLoss="11.77" rerouteNo="0" devices="tripinfo_-E8__0__motorbike.5" vType="motorbike" speedFactor="1.01" vaporized=""/>
    <tripinfo id="-E11__0__car.2" depart="18.00" departLane="-E11_2" departPos="4.60" departPosLat="0.00" departSpeed="0.00" departDelay="0.59" arrival="71.00" arrivalLane="E10_2" arrivalPos="216.74" arrivalPosLat="0.00" arrivalSpeed="10.68" duration="53.00" routeLength="495.36" waitingTime="0.00" waitingCount="0" stopTime="0.00" timeLoss="6.88" rerouteNo="0" devices="tripinfo_-E11__0__car.2" vType="car" speedFactor="1.00" vaporized=""/>
    <tripinfo id="-E5__0__motorbike.10" depart="21.00" departLane="-E5_2" departPos="2.10" departPosLat="0.00" departSpeed="0.00" departDelay="1.44" arrival="71.00" arrivalLane="E4_2" arrivalPos="143.61" arrivalPosLat="0.00" arrivalSpeed="9.71" duration="50.00" routeLength="320.87" waitingTime="0.00" waitingCount="0" stopTime="0.00" timeLoss="15.71" rerouteNo="0" devices="tripinfo_-E5__0__motorbike.10" vType="motorbike" speedFactor="0.89" vaporized=""/>
    <tripinfo id="-E8__0__motorbike.12" depart="25.00" departLane="-E8_1" departPos="2.10" departPosLat="0.00" departSpeed="0.00" departDelay="0.94" arrival="71.00" arrivalLane="E9_3" arrivalPos="212.89" arrivalPosLat="0.00" arrivalSpeed="11.08" duration="46.00" routeLength="437.18" waitingTime="0.00" waitingCount="0" stopTime="0.00" timeLoss="5.78" rerouteNo="0" devices="tripinfo_-E8__0__motorbike.12" vType="motorbike" speedFactor="1.01" vaporized=""/>
    <tripinfo id="E0__0__car.8" depart="36.00" departLane="E0_3" departPos="4.60" departPosLat="0.00" departSpeed="0.00" departDelay="0.09" arrival="72.00" arrivalLane="E1_2" arrivalPos="164.31" arrivalPosLat="0.00" arrivalSpeed="10.42" duration="36.00" routeLength="299.59" waitingTime="0.00" waitingCount="0" stopTime="0.00" timeLoss="8.38" rerouteNo="0" devices="tripinfo_E0__0__car.8" vType="car" speedFactor="1.14" vaporized=""/>
    <tripinfo id="-E5__0__motorbike.14" depart="28.00" departLane="-E5_3" departPos="2.10" departPosLat="0.00" departSpeed="0.00" departDelay="2.15" arrival="73.00" arrivalLane="E4_2" arrivalPos="143.61" arrivalPosLat="0.00" arrivalSpeed="9.99" duration="45.00" routeLength="320.87" waitingTime="0.00" waitingCount="0" stopTime="0.00" timeLoss="12.50" rerouteNo="0" devices="tripinfo_-E5__0__motorbike.14" vType="motorbike" speedFactor="0.92" vaporized=""/>
    <tripinfo id="-E8__0__motorbike.13" depart="27.00" departLane="-E8_3" departPos="2.10" departPosLat="0.00" departSpeed="0.00" departDelay="0.16" arrival="73.00" arrivalLane="E9_2" arrivalPos="212.89" arrivalPosLat="0.00" arrivalSpeed="10.95" duration="46.00" routeLength="437.18" waitingTime="0.00" waitingCount="0" stopTime="0.00" timeLoss="5.64" rerouteNo="0" devices="tripinfo_-E8__0__motorbike.13" vType="motorbike" speedFactor="1.03" vaporized=""/>
    <tripinfo id="-E8__0__motorbike.7" depart="11.00" departLane="-E8_2" departPos="2.10" departPosLat="0.00" departSpeed="0.00" departDelay="1.32" arrival="74.00" arrivalLane="E5_2" arrivalPos="170.02" arrivalPosLat="0.00" arrivalSpeed="10.89" duration="63.00" routeLength="541.19" waitingTime="0.00" waitingCount="0" stopTime="0.00" timeLoss="12.86" rerouteNo="0" devices="tripinfo_-E8__0__motorbike.7" vType="motorbike" speedFactor="1.09" vaporized=""/>
    <tripinfo id="-E11__0__motorbike.5" depart="14.00" departLane="-E11_2" departPos="2.10" departPosLat="0.00" departSpeed="0.00" departDelay="0.25" arrival="74.00" arrivalLane="E10_1" arrivalPos="216.74" arrivalPosLat="0.00" arrivalSpeed="10.59" duration="60.00" routeLength="497.86" waitingTime="0.00" waitingCount="0" stopTime="0.00" timeLoss="14.53" rerouteNo="0" devices="tripinfo_-E11__0__motorbike.5" vType="motorbike" speedFactor="1.02" vaporized=""/>
    <tripinfo id="-E11__0__motorbike.6" depart="19.00" departLane="-E11_1" departPos="2.10" departPosLat="0.00" departSpeed="0.00" departDelay="0.18" arrival="75.00" arrivalLane="E10_2" arrivalPos="216.74" arrivalPosLat="0.00" arrivalSpeed="10.94" duration="56.00" routeLength="497.86" waitingTime="0.00" waitingCount="0" stopTime="0.00" timeLoss="9.82" rerouteNo="0" devices="tripinfo_-E11__0__motorbike.6" vType="motorbike" speedFactor="1.00" vaporized=""/>
    <tripinfo id="-E9__0__motorbike.8" depart="28.00" departLane="-E9_1" departPos="2.10" departPosLat="0.00" departSpeed="0.00" departDelay="0.75" arrival="75.00" arrivalLane="E8_1" arrivalPos="201.31" arrivalPosLat="0.00" arrivalSpeed="10.43" duration="47.00" routeLength="421.26" waitingTime="0.00" waitingCount="0" stopTime="0.00" timeLoss="7.81" rerouteNo="0" devices="tripinfo_-E9__0__motorbike.8" vType="motorbike" speedFactor="1.15" vaporized=""/>
    <tripinfo id="-E5__0__motorbike.18" depart="32.00" departLane="-E5_2" departPos="2.10" departPosLat="0.00" departSpeed="0.00" departDelay="0.06" arrival="75.00" arrivalLane="E4_2" arrivalPos="143.61" arrivalPosLat="0.00" arrivalSpeed="10.84" duration="43.00" routeLength="320.87" waitingTime="0.00" waitingCount="0" stopTime="0.00" timeLoss="12.65" rerouteNo="0" devices="tripinfo_-E5__0__motorbike.18" vType="motorbike" speedFactor="1.00" vaporized=""/>
    <tripinfo id="-E4__0__car.1" depart="18.00" departLane="-E4_1" departPos="4.60" departPosLat="0.00" departSpeed="0.00" departDelay="1.74" arrival="76.00" arrivalLane="-E0_1" arrivalPos="130.83" arrivalPosLat="0.00" arrivalSpeed="10.76" duration="58.00" routeLength="514.44" waitingTime="0.00" waitingCount="0" stopTime="0.00" timeLoss="9.78" rerouteNo="0" devices="tripinfo_-E4__0__car.1" vType="car" speedFactor="1.06" vaporized=""/>
    <tripinfo id="E0__0__motorbike.15" depart="41.00" departLane="E0_3" departPos="2.10" departPosLat="0.00" departSpeed="0.00" departDelay="0.46" arrival="76.00" arrivalLane="E1_2" arrivalPos="164.31" arrivalPosLat="0.00" arrivalSpeed="10.51" duration="35.00" routeLength="302.09" waitingTime="0.00" waitingCount="0" stopTime="0.00" timeLoss="7.11" rerouteNo="0" devices="tripinfo_E0__0__motorbike.15" vType="motorbike" speedFactor="1.03" vaporized=""/>
    <tripinfo id="-E11__0__motorbike.7" depart="22.00" departLane="-E11_3" departPos="2.10" departPosLat="0.00" departSpeed="0.00" departDelay="0.85" arrival="77.00" arrivalLane="E10_2" arrivalPos="216.74" arrivalPosLat="0.00" arrivalSpeed="10.46" duration="55.00" routeLength="497.86" waitingTime="0.00" waitingCount="0" stopTime="0.00" timeLoss="9.60" rerouteNo="0" devices="tripinfo_-E11__0__motorbike.7" vType="motorbike" speedFactor="1.06" vaporized=""/>
    <tripinfo id="-E9__0__motorbike.9" depart="31.00" departLane="-E9_3" departPos="2.10" departPosLat="0.00" departSpeed="0.00" departDelay="0.34" arrival="78.00" arrivalLane="E8_2" arrivalPos="201.31" arrivalPosLat="0.00" arrivalSpeed="10.79" duration="47.00" routeLength="421.26" waitingTime="0.00" waitingCount="0" stopTime="0.00" timeLoss="7.31" rerouteNo="0" devices="tripinfo_-E9__0__motorbike.9" vType="motorbike" speedFactor="1.00" vaporized=""/>
    <tripinfo id="-E11__0__car.3" depart="23.00" departLane="-E11_1" departPos="4.60" departPosLat="0.00" departSpeed="0.00" departDelay="0.60" arrival="80.00" arrivalLane="E10_1" arrivalPos="216.74" arrivalPosLat="0.00" arrivalSpeed="10.95" duration="57.00" routeLength="495.36" waitingTime="0.00" waitingCount="0" stopTime="0.00" timeLoss="11.12" rerouteNo="0" devices="tripinfo_-E11__0__car.3" vType="car" speedFactor="1.12" vaporized=""/>
    <tripinfo id="-E5__0__motorbike.24" depart="44.00" departLane="-E5_2" departPos="2.10" departPosLat="0.00" departSpeed="0.00" departDelay="1.38" arrival="82.00" arrivalLane="E4_2" arrivalPos="143.61" arrivalPosLat="0.00" arrivalSpeed="10.71" duration="38.00" routeLength="320.87" waitingTime="0.00" waitingCount="0" stopTime="0.00" timeLoss="6.64" rerouteNo="0" devices="tripinfo_-E5__0__motorbike.24" vType="motorbike" speedFactor="0.97" vaporized=""/>
    <tripinfo id="-E5__0__motorbike.25" depart="44.00" departLane="-E5_1" departPos="2.10" departPosLat="0.00" departSpeed="0.00" departDelay="0.50" arrival="82.00" arrivalLane="E4_1" arrivalPos="143.61" arrivalPosLat="0.00" arrivalSpeed="10.38" duration="38.00" routeLength="320.87" waitingTime="0.00" waitingCount="0" stopTime="0.00" timeLoss="7.89" rerouteNo="0" devices="tripinfo_-E5__0__motorbike.25" vType="motorbike" speedFactor="1.00" vaporized=""/>
    <tripinfo id="-E5__0__motorbike.26" depart="46.00" departLane="-E5_2" departPos="2.10" departPosLat="0.00" departSpeed="0.00" departDelay="1.58" arrival="83.00" arrivalLane="E4_1" arrivalPos="143.61" arrivalPosLat="0.00" arrivalSpeed="10.60" duration="37.00" routeLength="320.87" waitingTime="0.00" waitingCount="0" stopTime="0.00" timeLoss="7.01" rerouteNo="0" devices="tripinfo_-E5__0__motorbike.26" vType="motorbike" speedFactor="1.07" vaporized=""/>
    <tripinfo id="E0__0__motorbike.18" depart="48.00" departLane="E0_1" departPos="2.10" departPosLat="0.00" departSpeed="0.00" departDelay="0.08" arrival="83.00" arrivalLane="E1_1" arrivalPos="164.31" arrivalPosLat="0.00" arrivalSpeed="10.43" duration="35.00" routeLength="302.09" waitingTime="0.00" waitingCount="0" stopTime="0.00" timeLoss="6.49" rerouteNo="0" devices="tripinfo_E0__0__motorbike.18" vType="motorbike" speedFactor="1.13" vaporized=""/>
    <tripinfo id="-E1__0__car.4" depart="16.00" departLane="-E1_3" departPos="4.60" departPosLat="0.00" departSpeed="0.00" departDelay="0.41" arrival="84.00" arrivalLane="E11_1" arrivalPos="274.15" arrivalPosLat="0.00" arrivalSpeed="10.62" duration="68.00" routeLength="608.75" waitingTime="0.00" waitingCount="0" stopTime="0.00" timeLoss="11.63" rerouteNo="0" devices="tripinfo_-E1__0__car.4" vType="car" speedFactor="1.04" vaporized=""/>
    <tripinfo id="-E4__0__motorbike.10" depart="26.00" departLane="-E4_3" departPos="2.10" departPosLat="0.00" departSpeed="0.00" departDelay="0.14" arrival="84.00" arrivalLane="-E0_2" arrivalPos="130.83" arrivalPosLat="0.00" arrivalSpeed="10.78" duration="58.00" routeLength="516.94" waitingTime="0.00" waitingCount="0" stopTime="0.00" timeLoss="9.93" rerouteNo="0" devices="tripinfo_-E4__0__motorbike.10" vType="motorbike" speedFactor="1.18" vaporized=""/>
    <tripinfo id="-E8__0__motorbike.8" depart="13.00" departLane="-E8_2" departPos="2.10" departPosLat="0.00" departSpeed="0.00" departDelay="2.29" arrival="86.00" arrivalLane="E5_1" arrivalPos="170.02" arrivalPosLat="0.00" arrivalSpeed="9.28" duration="73.00" routeLength="541.19" waitingTime="1.00" waitingCount="1" stopTime="0.00" timeLoss="13.33" rerouteNo="0" devices="tripinfo_-E8__0__motorbike.8" vType="motorbike" speedFactor="0.85" vaporized=""/>
    <tripinfo id="-E8__0__motorbike.19" depart="37.00" departLane="-E8_3" departPos="2.10" departPosLat="0.00" departSpeed="0.00" departDelay="3.10" arrival="86.00" arrivalLane="E9_2" arrivalPos="212.89" arrivalPosLat="0.00" arrivalSpeed="9.76" duration="49.00" routeLength="437.18" waitingTime="0.00" waitingCount="0" stopTime="0.00" timeLoss="5.75" rerouteNo="0" devices="tripinfo_-E8__0__motorbike.19" vType="motorbike" speedFactor="0.91" vaporized=""/>
    <tripinfo id="-E5__0__car.5" depart="50.00" departLane="-E5_3" departPos="4.60" departPosLat="0.00" departSpeed="0.00" departDelay="1.23" arrival="86.00" arrivalLane="E4_2" arrivalPos="143.61" arrivalPosLat="0.00" arrivalSpeed="10.61" duration="36.00" routeLength="318.37" waitingTime="0.00" waitingCount="0" stopTime="0.00" timeLoss="6.48" rerouteNo="0" devices="tripinfo_-E5__0__car.5" vType="car" speedFactor="1.02" vaporized=""/>
    <tripinfo id="E0__0__car.12" depart="50.00" departLane="E0_2" departPos="4.60" departPosLat="0.00" departSpeed="0.00" departDelay="1.77" arrival="87.00" arrivalLane="E1_2" arrivalPos="164.31" arrivalPosLat="0.00" arrivalSpeed="11.01" duration="37.00" routeLength="299.59" waitingTime="0.00" waitingCount="0" stopTime="0.00" timeLoss="8.58" rerouteNo="0" devices="tripinfo_E0__0__car.12" vType="car" speedFactor="1.01" vaporized=""/>
    <tripinfo id="-E1__0__car.5" depart="17.00" departLane="-E1_1" departPos="4.60" departPosLat="0.00" departSpeed="0.00" departDelay="0.54" arrival="88.00" arrivalLane="E11_1" arrivalPos="274.15" arrivalPosLat="0.00" arrivalSpeed="10.05" duration="71.00" routeLength="608.75" waitingTime="0.00" waitingCount="0" stopTime="0.00" timeLoss="12.16" rerouteNo="0" devices="tripinfo_-E1__0__car.5" vType="car" speedFactor="0.96" vaporized=""/>
    <tripinfo id="-E11__0__car.8" depart="35.00" departLane="-E11_1" departPos="4.60" departPosLat="0.00" departSpeed="0.00" departDelay="0.40" arrival="89.00" arrivalLane="E10_2" arrivalPos="216.74" arrivalPosLat="0.00" arrivalSpeed="10.64" duration="54.00" routeLength="495.36" waitingTime="0.00" waitingCount="0" stopTime="0.00" timeLoss="7.74" rerouteNo="0" devices="tripinfo_-E11__0__car.8" vType="car" speedFactor="0.98" vaporized=""/>
    <tripinfo id="-E9__0__motorbike.13" depart="38.00" departLane="-E9_3" departPos="2.10" departPosLat="0.00" departSpeed="0.00" departDelay="1.23" arrival="91.00" arrivalLane="E8_1" arrivalPos="201.31" arrivalPosLat="0.20" arrivalSpeed="10.02" duration="53.00" routeLength="421.26" waitingTime="0.00" waitingCount="0" stopTime="0.00" timeLoss="10.54" rerouteNo="0" devices="tripinfo_-E9__0__motorbike.13" vType="motorbike" speedFactor="0.92" vaporized=""/>
    <tripinfo id="-E9__0__motorbike.16" depart="42.00" departLane="-E9_1" departPos="2.10" departPosLat="0.00" departSpeed="0.00" departDelay="0.06" arrival="91.00" arrivalLane="E8_3" arrivalPos="201.31" arrivalPosLat="0.00" arrivalSpeed="10.61" duration="49.00" routeLength="421.26" waitingTime="0.00" waitingCount="0" stopTime="0.00" timeLoss="10.05" rerouteNo="0" devices="tripinfo_-E9__0__motorbike.16" vType="motorbike" speedFactor="1.03" vaporized=""/>
    <tripinfo id="-E11__0__car.10" depart="38.00" departLane="-E11_3" departPos="4.60" departPosLat="0.00" departSpeed="0.00" departDelay="0.89" arrival="92.00" arrivalLane="E10_1" arrivalPos="216.74" arrivalPosLat="0.00" arrivalSpeed="10.51" duration="54.00" routeLength="495.36" waitingTime="0.00" waitingCount="0" stopTime="0.00" timeLoss="7.99" rerouteNo="0" devices="tripinfo_-E11__0__car.10" vType="car" speedFactor="1.08" vaporized=""/>
    <tripinfo id="-E8__0__motorbike.14" depart="31.00" departLane="-E8_2" departPos="2.10" departPosLat="0.00" departSpeed="0.00" departDelay="0.27" arrival="93.00" arrivalLane="E5_2" arrivalPos="170.02" arrivalPosLat="0.00" arrivalSpeed="10.02" duration="62.00" routeLength="541.19" waitingTime="0.00" waitingCount="0" stopTime="0.00" timeLoss="9.06" rerouteNo="0" devices="tripinfo_-E8__0__motorbike.14" vType="motorbike" speedFactor="0.95" vaporized=""/>
    <tripinfo id="-E8__0__motorbike.15" depart="32.00" departLane="-E8_1" departPos="2.10" departPosLat="0.00" departSpeed="0.00" departDelay="0.37" arrival="93.00" arrivalLane="E5_1" arrivalPos="170.02" arrivalPosLat="0.00" arrivalSpeed="10.88" duration="61.00" routeLength="541.19" waitingTime="0.00" waitingCount="0" stopTime="0.00" timeLoss="10.89" rerouteNo="0" devices="tripinfo_-E8__0__motorbike.15" vType="motorbike" speedFactor="1.00" vaporized=""/>
    <tripinfo id="-E5__0__car.8" depart="55.00" departLane="-E5_3" departPos="4.60" departPosLat="0.00" departSpeed="0.00" departDelay="1.05" arrival="93.00" arrivalLane="E4_2" arrivalPos="143.61" arrivalPosLat="0.00" arrivalSpeed="10.14" duration="38.00" routeLength="318.37" waitingTime="0.00" waitingCount="0" stopTime="0.00" timeLoss="6.93" rerouteNo="0" devices="tripinfo_-E5__0__car.8" vType="car" speedFactor="0.96" vaporized=""/>