<?xml version="1.0" encoding="UTF-8"?>

<!-- generated on 2026-06-21 12:13:20 by Eclipse SUMO GUI Version 1.18.0
<configuration xmlns:xsi="http://www.w3.org/2001/XMLSchema-instance" xsi:noNamespaceSchemaLocation="http://sumo.dlr.de/xsd/sumoConfiguration.xsd">

    <input>
        <net-file value="./Scenario/3nodes/env/3nodes.net.xml"/>
        <route-files value="./Scenario/3nodes/env/../routes/vehicle.rou.xml"/>
        <additional-files value="./Scenario/3nodes/env/../add/tls.add.xml,./Scenario/3nodes/env/ ../add/e2.add.xml"/>
    </input>

    <output>
        <netstate-dump value="./Scenario/3nodes/env/../output/e2.netstate.xml"/>
        <netstate-dump.precision value="2"/>
        <summary-output value="./Scenario/3nodes/env/../output/e2_summary.output.xml"/>
        <tripinfo-output value="./Scenario/3nodes/env/../output/e2.tripinfo.xml"/>
    </output>

    <time>
        <begin value="0"/>
        <end value="504"/>
        <step-length value="1.0"/>
    </time>

    <processing>
        <lateral-resolution value="0.2"/>
    </processing>

</configuration>
-->

<netstate xmlns:xsi="http://www.w3.org/2001/XMLSchema-instance" xsi:noNamespaceSchemaLocation="http://sumo.dlr.de/xsd/netstate_file.xsd">
    <timestep time="0.00"/>
    <timestep time="1.00"/>
    <timestep time="2.00"/>
    <timestep time="3.00"/>
    <timestep time="4.00">
        <edge id="-E4">
            <lane id="-E4_0"/>
            <lane id="-E4_1"/>
            <lane id="-E4_2"/>
            <lane id="-E4_3">
                <vehicle id="-E4__0__car.0" pos="4.60" speed="0.00" posLat="0.00" speedLat="0.00"/>
            </lane>
        </edge>
    </timestep>
    <timestep time="5.00">
        <edge id="-E4">
            <lane id="-E4_0"/>
            <lane id="-E4_1"/>
            <lane id="-E4_2"/>
            <lane id="-E4_3">
                <vehicle id="-E4__0__car.0" pos="5.40" speed="0.80" posLat="0.00" speedLat="0.00"/>
            </lane>
        </edge>
    </timestep>
    <timestep time="6.00">
        <edge id="-E4">
            <lane id="-E4_0"/>
            <lane id="-E4_1"/>
            <lane id="-E4_2"/>
            <lane id="-E4_3">
                <vehicle id="-E4__0__car.0" pos="7.17" speed="1.77" posLat="0.00" speedLat="0.00"/>
            </lane>
        </edge>
    </timestep>
    <timestep time="7.00">
        <edge id="-E4">
            <lane id="-E4_0"/>
            <lane id="-E4_1"/>
            <lane id="-E4_2"/>
            <lane id="-E4_3">
                <vehicle id="-E4__0__car.0" pos="9.93" speed="2.76" posLat="0.00" speedLat="0.00"/>
            </lane>
        </edge>
        <edge id="-E7">
            <lane id="-E7_0"/>
            <lane id="-E7_1"/>
            <lane id="-E7_2">
                <vehicle id="-E7__0__motorbike.0" pos="2.10" speed="0.00" posLat="0.00" speedLat="0.00"/>
            </lane>
            <lane id="-E7_3">
                <vehicle id="-E7__0__motorbike.1" pos="2.10" speed="0.00" posLat="0.00" speedLat="0.00"/>
            </lane>
        </edge>
    </timestep>
    <timestep time="8.00">
        <edge id="-E4">
            <lane id="-E4_0"/>
            <lane id="-E4_1"/>
            <lane id="-E4_2"/>
            <lane id="-E4_3">
                <vehicle id="-E4__0__car.0" pos="13.78" speed="3.85" posLat="0.00" speedLat="0.00"/>
            </lane>
        </edge>
        <edge id="-E7">
            <lane id="-E7_0"/>
            <lane id="-E7_1"/>
            <lane id="-E7_2">
                <vehicle id="-E7__0__motorbike.0" pos="3.47" speed="1.37" posLat="0.00" speedLat="0.00"/>
            </lane>
            <lane id="-E7_3">
                <vehicle id="-E7__0__motorbike.1" pos="3.24" speed="1.14" posLat="0.00" speedLat="0.00"/>
            </lane>
        </edge>
        <edge id="-E9">
            <lane id="-E9_0"/>
            <lane id="-E9_1">
                <vehicle id="-E9__0__motorbike.0" pos="2.10" speed="0.00" posLat="0.00" speedLat="0.00"/>
            </lane>
            <lane id="-E9_2"/>
            <lane id="-E9_3"/>
        </edge>
    </timestep>
    <timestep time="9.00">
        <edge id="-E4">
            <lane id="-E4_0"/>
            <lane id="-E4_1"/>
            <lane id="-E4_2"/>
            <lane id="-E4_3">
                <vehicle id="-E4__0__car.0" pos="18.44" speed="4.67" posLat="0.00" speedLat="0.00"/>
            </lane>
        </edge>
        <edge id="-E7">
            <lane id="-E7_0"/>
            <lane id="-E7_1"/>
            <lane id="-E7_2">
                <vehicle id="-E7__0__motorbike.0" pos="5.93" speed="2.46" posLat="0.00" speedLat="0.00"/>
            </lane>
            <lane id="-E7_3">
                <vehicle id="-E7__0__motorbike.1" pos="5.36" speed="2.12" posLat="0.00" speedLat="0.00"/>
            </lane>
        </edge>
        <edge id="-E9">
            <lane id="-E9_0"/>
            <lane id="-E9_1">
                <vehicle id="-E9__0__motorbike.0" pos="3.60" speed="1.50" posLat="0.00" speedLat="0.00"/>
            </lane>
            <lane id="-E9_2"/>
            <lane id="-E9_3"/>
        </edge>
    </timestep>
    <timestep time="10.00">
        <edge id="-E4">
            <lane id="-E4_0"/>
            <lane id="-E4_1"/>
            <lane id="-E4_2"/>
            <lane id="-E4_3">
                <vehicle id="-E4__0__car.0" pos="24.32" speed="5.88" posLat="-1.00" speedLat="-1.00"/>
            </lane>
        </edge>
        <edge id="-E7">
            <lane id="-E7_0"/>
            <lane id="-E7_1"/>
            <lane id="-E7_2">
                <vehicle id="-E7__0__motorbike.0" pos="9.59" speed="3.66" posLat="0.00" speedLat="0.00"/>
            </lane>
            <lane id="-E7_3">
                <vehicle id="-E7__0__motorbike.1" pos="8.24" speed="2.88" posLat="0.00" speedLat="0.00"/>
            </lane>
        </edge>
        <edge id="-E9">
            <lane id="-E9_0"/>
            <lane id="-E9_1">
                <vehicle id="-E9__0__motorbike.0" pos="6.36" speed="2.76" posLat="0.00" speedLat="0.00"/>
            </lane>
            <lane id="-E9_2"/>
            <lane id="-E9_3"/>
        </edge>
    </timestep>
    <timestep time="11.00">
        <edge id="-E2">
            <lane id="-E2_0"/>
            <lane id="-E2_1"/>
            <lane id="-E2_2">
                <vehicle id="-E2__0__motorbike.0" pos="2.10" speed="0.00" posLat="0.00" speedLat="0.00"/>
            </lane>
            <lane id="-E2_3"/>
        </edge>
        <edge id="-E4">
            <lane id="-E4_0"/>
            <lane id="-E4_1"/>
            <lane id="-E4_2">
                <vehicle id="-E4__0__car.0" pos="31.64" speed="7.32" posLat="1.20" speedLat="-1.00"/>
            </lane>
            <lane id="-E4_3"/>
        </edge>
        <edge id="-E7">
            <lane id="-E7_0"/>
            <lane id="-E7_1"/>
            <lane id="-E7_2">
                <vehicle id="-E7__0__motorbike.0" pos="14.11" speed="4.53" posLat="0.00" speedLat="0.00"/>
            </lane>
            <lane id="-E7_3">
                <vehicle id="-E7__0__motorbike.1" pos="12.57" speed="4.33" posLat="0.00" speedLat="0.00"/>
            </lane>
        </edge>
        <edge id="-E9">
            <lane id="-E9_0"/>
            <lane id="-E9_1">
                <vehicle id="-E9__0__motorbike.0" pos="10.10" speed="3.74" posLat="1.00" speedLat="1.00"/>
            </lane>
            <lane id="-E9_2"/>
            <lane id="-E9_3">
                <vehicle id="-E9__0__motorbike.1" pos="2.10" speed="0.00" posLat="0.00" speedLat="0.00"/>
            </lane>
        </edge>
    </timestep>
    <timestep time="12.00">
        <edge id="-E2">
            <lane id="-E2_0"/>
            <lane id="-E2_1"/>
            <lane id="-E2_2">
                <vehicle id="-E2__0__motorbike.0" pos="3.18" speed="1.08" posLat="0.00" speedLat="0.00"/>
            </lane>
            <lane id="-E2_3"/>
        </edge>
        <edge id="-E4">
            <lane id="-E4_0"/>
            <lane id="-E4_1"/>
            <lane id="-E4_2">
                <vehicle id="-E4__0__car.0" pos="39.95" speed="8.31" posLat="0.20" speedLat="-1.00"/>
            </lane>
            <lane id="-E4_3"/>
        </edge>
        <edge id="-E5">
            <lane id="-E5_0"/>
            <lane id="-E5_1"/>
            <lane id="-E5_2">
                <vehicle id="-E5__0__motorbike.0" pos="2.10" speed="0.00" posLat="0.00" speedLat="0.00"/>
            </lane>
            <lane id="-E5_3"/>
        </edge>
        <edge id="-E7">
            <lane id="-E7_0"/>
            <lane id="-E7_1"/>
            <lane id="-E7_2">
                <vehicle id="-E7__0__motorbike.0" pos="19.56" speed="5.44" posLat="-1.00" speedLat="-1.00"/>
            </lane>
            <lane id="-E7_3">
                <vehicle id="-E7__0__motorbike.1" pos="18.10" speed="5.53" posLat="0.00" speedLat="0.00"/>
            </lane>
        </edge>
        <edge id="-E9">
            <lane id="-E9_0"/>
            <lane id="-E9_1"/>
            <lane id="-E9_2">
                <vehicle id="-E9__0__motorbike.0" pos="14.84" speed="4.74" posLat="-1.20" speedLat="1.00"/>
            </lane>
            <lane id="-E9_3">
                <vehicle id="-E9__0__motorbike.1" pos="3.45" speed="1.35" posLat="0.00" speedLat="0.00"/>
            </lane>
        </edge>
    </timestep>
    <timestep time="13.00">
        <edge id="-E2">
            <lane id="-E2_0"/>
            <lane id="-E2_1"/>
            <lane id="-E2_2">
                <vehicle id="-E2__0__motorbike.0" pos="5.39" speed="2.20" posLat="0.00" speedLat="0.00"/>
            </lane>
            <lane id="-E2_3"/>
        </edge>
        <edge id="-E4">
            <lane id="-E4_0"/>
            <lane id="-E4_1"/>
            <lane id="-E4_2">
                <vehicle id="-E4__0__car.0" pos="49.72" speed="9.77" posLat="-0.80" speedLat="-1.00"/>
            </lane>
            <lane id="-E4_3"/>
        </edge>
        <edge id="-E5">
            <lane id="-E5_0"/>
            <lane id="-E5_1"/>
            <lane id="-E5_2">
                <vehicle id="-E5__0__motorbike.0" pos="3.46" speed="1.36" posLat="0.00" speedLat="0.00"/>
            </lane>
            <lane id="-E5_3"/>
        </edge>
        <edge id="-E7">
            <lane id="-E7_0"/>
            <lane id="-E7_1">
                <vehicle id="-E7__0__motorbike.0" pos="26.02" speed="6.46" posLat="1.20" speedLat="-1.00"/>
            </lane>
            <lane id="-E7_2">
                <vehicle id="-E7__0__car.0" pos="4.60" speed="0.00" posLat="0.00" speedLat="0.00"/>
            </lane>
            <lane id="-E7_3">
                <vehicle id="-E7__0__motorbike.1" pos="24.50" speed="6.40" posLat="0.00" speedLat="0.00"/>
            </lane>
        </edge>
        <edge id="-E9">
            <lane id="-E9_0"/>
            <lane id="-E9_1"/>
            <lane id="-E9_2">
                <vehicle id="-E9__0__motorbike.0" pos="20.59" speed="5.75" posLat="-0.20" speedLat="1.00"/>
            </lane>
            <lane id="-E9_3">
                <vehicle id="-E9__0__motorbike.1" pos="5.63" speed="2.18" posLat="0.00" speedLat="0.00"/>
            </lane>
        </edge>
    </timestep>
    <timestep time="14.00">
        <edge id="-E2">
            <lane id="-E2_0"/>
            <lane id="-E2_1"/>
            <lane id="-E2_2">
                <vehicle id="-E2__0__motorbike.0" pos="8.99" speed="3.60" posLat="0.00" speedLat="0.00"/>
            </lane>
            <lane id="-E2_3"/>
        </edge>
        <edge id="-E4">
            <lane id="-E4_0"/>
            <lane id="-E4_1">
                <vehicle id="-E4__0__car.0" pos="60.50" speed="10.78" posLat="1.40" speedLat="-1.00"/>
            </lane>
            <lane id="-E4_2"/>
            <lane id="-E4_3"/>
        </edge>
        <edge id="-E5">
            <lane id="-E5_0"/>
            <lane id="-E5_1"/>
            <lane id="-E5_2">
                <vehicle id="-E5__0__motorbike.0" pos="5.61" speed="2.15" posLat="0.00" speedLat="0.00"/>
            </lane>
            <lane id="-E5_3"/>
        </edge>
        <edge id="-E7">
            <lane id="-E7_0"/>
            <lane id="-E7_1">
                <vehicle id="-E7__0__motorbike.0" pos="33.75" speed="7.74" posLat="0.20" speedLat="-1.00"/>
            </lane>
            <lane id="-E7_2">
                <vehicle id="-E7__0__car.0" pos="5.42" speed="0.82" posLat="0.00" speedLat="0.00"/>
            </lane>
            <lane id="-E7_3">
                <vehicle id="-E7__0__motorbike.1" pos="31.97" speed="7.47" posLat="0.00" speedLat="0.00"/>
            </lane>
        </edge>
        <edge id="-E9">
            <lane id="-E9_0"/>
            <lane id="-E9_1"/>
            <lane id="-E9_2">
                <vehicle id="-E9__0__motorbike.0" pos="27.44" speed="6.85" posLat="0.80" speedLat="1.00"/>
            </lane>
            <lane id="-E9_3">
                <vehicle id="-E9__0__motorbike.1" pos="9.23" speed="3.60" posLat="0.00" speedLat="0.00"/>
            </lane>
        </edge>
    </timestep>
    <timestep time="15.00">
        <edge id="-E2">
            <lane id="-E2_0"/>
            <lane id="-E2_1"/>
            <lane id="-E2_2">
                <vehicle id="-E2__0__motorbike.0" pos="13.63" speed="4.64" posLat="0.00" speedLat="0.00"/>
            </lane>
            <lane id="-E2_3"/>
        </edge>
        <edge id="-E4">
            <lane id="-E4_0"/>
            <lane id="-E4_1">
                <vehicle id="-E4__0__car.0" pos="70.87" speed="10.37" posLat="0.40" speedLat="-1.00"/>
            </lane>
            <lane id="-E4_2"/>
            <lane id="-E4_3"/>
        </edge>
        <edge id="-E5">
            <lane id="-E5_0"/>
            <lane id="-E5_1"/>
            <lane id="-E5_2">
                <vehicle id="-E5__0__motorbike.0" pos="8.69" speed="3.08" posLat="0.00" speedLat="0.00"/>
            </lane>
            <lane id="-E5_3"/>
        </edge>
        <edge id="-E7">
            <lane id="-E7_0"/>
            <lane id="-E7_1">
                <vehicle id="-E7__0__motorbike.0" pos="42.82" speed="9.06" posLat="0.00" speedLat="-0.20"/>
            </lane>
            <lane id="-E7_2">
                <vehicle id="-E7__0__car.0" pos="7.22" speed="1.80" posLat="0.00" speedLat="0.00"/>
            </lane>
            <lane id="-E7_3">
                <vehicle id="-E7__0__motorbike.1" pos="40.45" speed="8.48" posLat="0.00" speedLat="0.00"/>
            </lane>
        </edge>
        <edge id="-E9">
            <lane id="-E9_0"/>
            <lane id="-E9_1"/>
            <lane id="-E9_2"/>
            <lane id="-E9_3">
                <vehicle id="-E9__0__motorbike.1" pos="13.90" speed="4.67" posLat="0.00" speedLat="0.00"/>
                <vehicle id="-E9__0__motorbike.0" pos="35.50" speed="8.06" posLat="-1.40" speedLat="1.00"/>
            </lane>
        </edge>
    </timestep>
    <timestep time="16.00">
        <edge id="-E2">
            <lane id="-E2_0"/>
            <lane id="-E2_1"/>
            <lane id="-E2_2">
                <vehicle id="-E2__0__motorbike.0" pos="19.31" speed="5.68" posLat="0.00" speedLat="0.00"/>
            </lane>
            <lane id="-E2_3"/>
        </edge>
        <edge id="-E4">
            <lane id="-E4_0"/>
            <lane id="-E4_1">
                <vehicle id="-E4__0__car.0" pos="81.56" speed="10.70" posLat="0.00" speedLat="-0.40"/>
            </lane>
            <lane id="-E4_2"/>
            <lane id="-E4_3"/>
        </edge>
        <edge id="-E5">
            <lane id="-E5_0"/>
            <lane id="-E5_1"/>
            <lane id="-E5_2">
                <vehicle id="-E5__0__motorbike.0" pos="12.77" speed="4.08" posLat="0.00" speedLat="0.00"/>
            </lane>
            <lane id="-E5_3"/>
        </edge>
        <edge id="-E7">
            <lane id="-E7_0"/>
            <lane id="-E7_1">
                <vehicle id="-E7__0__motorbike.0" pos="53.13" speed="10.31" posLat="0.00" speedLat="0.00"/>
            </lane>
            <lane id="-E7_2">
                <vehicle id="-E7__0__car.0" pos="9.85" speed="2.63" posLat="0.00" speedLat="0.00"/>
            </lane>
            <lane id="-E7_3">
                <vehicle id="-E7__0__motorbike.1" pos="50.11" speed="9.66" posLat="0.00" speedLat="0.00"/>
            </lane>
        </edge>
        <edge id="-E9">
            <lane id="-E9_0"/>
            <lane id="-E9_1"/>
            <lane id="-E9_2"/>
            <lane id="-E9_3">
                <vehicle id="-E9__0__motorbike.1" pos="19.78" speed="5.88" posLat="0.00" speedLat="0.00"/>
                <vehicle id="-E9__0__motorbike.0" pos="44.89" speed="9.39" posLat="-0.40" speedLat="1.00"/>
            </lane>
        </edge>
        <edge id="E0">
            <lane id="E0_0"/>
            <lane id="E0_1"/>
            <lane id="E0_2">
                <vehicle id="E0__0__car.0" pos="4.60" speed="0.00" posLat="0.00" speedLat="0.00"/>
            </lane>
            <lane id="E0_3"/>
        </edge>
    </timestep>
    <timestep time="17.00">
        <edge id="-E2">
            <lane id="-E2_0"/>
            <lane id="-E2_1"/>
            <lane id="-E2_2">
                <vehicle id="-E2__0__motorbike.0" pos="26.09" speed="6.78" posLat="0.00" speedLat="0.00"/>
            </lane>
            <lane id="-E2_3"/>
        </edge>
        <edge id="-E4">
            <lane id="-E4_0"/>
            <lane id="-E4_1">
                <vehicle id="-E4__0__car.0" pos="92.34" speed="10.78" posLat="0.00" speedLat="0.00"/>
            </lane>
            <lane id="-E4_2"/>
            <lane id="-E4_3"/>
        </edge>
        <edge id="-E5">
            <lane id="-E5_0"/>
            <lane id="-E5_1"/>
            <lane id="-E5_2">
                <vehicle id="-E5__0__motorbike.0" pos="17.85" speed="5.08" posLat="0.00" speedLat="0.00"/>
            </lane>
            <lane id="-E5_3"/>
        </edge>
        <edge id="-E7">
            <lane id="-E7_0"/>
            <lane id="-E7_1">
                <vehicle id="-E7__0__motorbike.0" pos="63.02" speed="9.90" posLat="0.00" speedLat="0.00"/>
            </lane>
            <lane id="-E7_2">
                <vehicle id="-E7__0__car.0" pos="13.61" speed="3.76" posLat="0.00" speedLat="0.00"/>
            </lane>
            <lane id="-E7_3">
                <vehicle id="-E7__0__motorbike.1" pos="60.81" speed="10.70" posLat="0.00" speedLat="0.00"/>
            </lane>
        </edge>
        <edge id="-E9">
            <lane id="-E9_0"/>
            <lane id="-E9_1"/>
            <lane id="-E9_2"/>
            <lane id="-E9_3">
                <vehicle id="-E9__0__motorbike.1" pos="26.68" speed="6.90" posLat="0.00" speedLat="0.00"/>
                <vehicle id="-E9__0__motorbike.0" pos="55.10" speed="10.21" posLat="0.00" speedLat="0.40"/>
            </lane>
        </edge>
        <edge id="E0">
            <lane id="E0_0"/>
            <lane id="E0_1"/>
            <lane id="E0_2">
                <vehicle id="E0__0__car.0" pos="5.77" speed="1.17" posLat="0.00" speedLat="0.00"/>
            </lane>
            <lane id="E0_3"/>
        </edge>
    </timestep>
    <timestep time="18.00">
        <edge id="-E2">
            <lane id="-E2_0"/>
            <lane id="-E2_1"/>
            <lane id="-E2_2">
                <vehicle id="-E2__0__motorbike.0" pos="34.31" speed="8.22" posLat="0.00" speedLat="0.00"/>
            </lane>
            <lane id="-E2_3"/>
        </edge>
        <edge id="-E4">
            <lane id="-E4_0"/>
            <lane id="-E4_1">
                <vehicle id="-E4__0__car.0" pos="102.92" speed="10.58" posLat="0.00" speedLat="0.00"/>
            </lane>
            <lane id="-E4_2">
                <vehicle id="-E4__0__car.1" pos="4.60" speed="0.00" posLat="0.00" speedLat="0.00"/>
            </lane>
            <lane id="-E4_3"/>
        </edge>
        <edge id="-E5">
            <lane id="-E5_0"/>
            <lane id="-E5_1"/>
            <lane id="-E5_2">
                <vehicle id="-E5__0__motorbike.0" pos="24.24" speed="6.39" posLat="0.00" speedLat="0.00"/>
            </lane>
            <lane id="-E5_3"/>
        </edge>
        <edge id="-E7">
            <lane id="-E7_0"/>
            <lane id="-E7_1">
                <vehicle id="-E7__0__motorbike.0" pos="72.94" speed="9.91" posLat="0.00" speedLat="0.00"/>
            </lane>
            <lane id="-E7_2">
                <vehicle id="-E7__0__car.0" pos="18.68" speed="5.07" posLat="0.00" speedLat="0.00"/>
            </lane>
            <lane id="-E7_3">
                <vehicle id="-E7__0__motorbike.1" pos="71.49" speed="10.68" posLat="0.00" speedLat="0.00"/>
            </lane>
        </edge>
        <edge id="-E9">
            <lane id="-E9_0"/>
            <lane id="-E9_1"/>
            <lane id="-E9_2"/>
            <lane id="-E9_3">
                <vehicle id="-E9__0__motorbike.1" pos="34.43" speed="7.76" posLat="0.00" speedLat="0.00"/>
                <vehicle id="-E9__0__motorbike.0" pos="65.56" speed="10.46" posLat="0.00" speedLat="0.00"/>
            </lane>
        </edge>
        <edge id="E0">
            <lane id="E0_0"/>
            <lane id="E0_1"/>
            <lane id="E0_2">
                <vehicle id="E0__0__car.0" pos="7.99" speed="2.22" posLat="0.00" speedLat="0.00"/>
            </lane>
            <lane id="E0_3"/>
        </edge>
    </timestep>
    <timestep time="19.00">
        <edge id="-E2">
            <lane id="-E2_0"/>
            <lane id="-E2_1"/>
            <lane id="-E2_2">
                <vehicle id="-E2__0__motorbike.0" pos="42.80" speed="8.49" posLat="0.00" speedLat="0.00"/>
            </lane>
            <lane id="-E2_3"/>
        </edge>
        <edge id="-E4">
            <lane id="-E4_0"/>
            <lane id="-E4_1">
                <vehicle id="-E4__0__car.0" pos="113.85" speed="10.93" posLat="0.00" speedLat="0.00"/>
            </lane>
            <lane id="-E4_2">
                <vehicle id="-E4__0__car.1" pos="5.35" speed="0.75" posLat="0.00" speedLat="0.00"/>
            </lane>
            <lane id="-E4_3"/>
        </edge>
        <edge id="-E5">
            <lane id="-E5_0"/>
            <lane id="-E5_1"/>
            <lane id="-E5_2">
                <vehicle id="-E5__0__motorbike.0" pos="31.82" speed="7.58" posLat="0.00" speedLat="0.00"/>
            </lane>
            <lane id="-E5_3"/>
        </edge>
        <edge id="-E7">
            <lane id="-E7_0"/>
            <lane id="-E7_1">
                <vehicle id="-E7__0__motorbike.0" pos="82.87" speed="9.93" posLat="0.00" speedLat="0.00"/>
            </lane>
            <lane id="-E7_2">
                <vehicle id="-E7__0__car.0" pos="24.83" speed="6.14" posLat="0.00" speedLat="0.00"/>
            </lane>
            <lane id="-E7_3">
                <vehicle id="-E7__0__motorbike.1" pos="81.87" speed="10.38" posLat="0.00" speedLat="0.00"/>
            </lane>
        </edge>
        <edge id="-E9">
            <lane id="-E9_0"/>
            <lane id="-E9_1"/>
            <lane id="-E9_2"/>
            <lane id="-E9_3">
                <vehicle id="-E9__0__motorbike.1" pos="43.57" speed="9.14" posLat="-1.00" speedLat="-1.00"/>
                <vehicle id="-E9__0__motorbike.0" pos="76.07" speed="10.51" posLat="0.00" speedLat="0.00"/>
            </lane>
        </edge>
        <edge id="E0">
            <lane id="E0_0"/>
            <lane id="E0_1"/>
            <lane id="E0_2">
                <vehicle id="E0__0__car.0" pos="11.56" speed="3.57" posLat="0.00" speedLat="0.00"/>
            </lane>
            <lane id="E0_3"/>
        </edge>
    </timestep>
    <timestep time="20.00">
        <edge id="-E2">
            <lane id="-E2_0"/>
            <lane id="-E2_1"/>
            <lane id="-E2_2">
                <vehicle id="-E2__0__motorbike.0" pos="51.75" speed="8.96" posLat="0.00" speedLat="0.00"/>
            </lane>
            <lane id="-E2_3"/>
        </edge>
        <edge id="-E4">
            <lane id="-E4_0"/>
            <lane id="-E4_1">
                <vehicle id="-E4__0__car.0" pos="124.71" speed="10.86" posLat="0.00" speedLat="0.00"/>
            </lane>
            <lane id="-E4_2">
                <vehicle id="-E4__0__car.1" pos="7.02" speed="1.67" posLat="0.00" speedLat="0.00"/>
            </lane>
            <lane id="-E4_3"/>
        </edge>
        <edge id="-E5">
            <lane id="-E5_0"/>
            <lane id="-E5_1"/>
            <lane id="-E5_2">
                <vehicle id="-E5__0__motorbike.0" pos="40.73" speed="8.91" posLat="0.00" speedLat="0.00"/>
            </lane>
            <lane id="-E5_3"/>
        </edge>
        <edge id="-E7">
            <lane id="-E7_0"/>
            <lane id="-E7_1">
                <vehicle id="-E7__0__motorbike.0" pos="92.94" speed="10.08" posLat="0.00" speedLat="0.00"/>
            </lane>
            <lane id="-E7_2">
                <vehicle id="-E7__0__car.0" pos="32.38" speed="7.56" posLat="0.00" speedLat="0.00"/>
            </lane>
            <lane id="-E7_3">
                <vehicle id="-E7__0__motorbike.1" pos="92.57" speed="10.71" posLat="0.00" speedLat="0.00"/>
            </lane>
        </edge>
        <edge id="-E8">
            <lane id="-E8_0"/>
            <lane id="-E8_1"/>
            <lane id="-E8_2"/>
            <lane id="-E8_3">
                <vehicle id="-E8__0__motorbike.0" pos="2.10" speed="0.00" posLat="0.00" speedLat="0.00"/>
            </lane>
        </edge>
        <edge id="-E9">
            <lane id="-E9_0"/>
            <lane id="-E9_1"/>
            <lane id="-E9_2">
                <vehicle id="-E9__0__motorbike.1" pos="53.89" speed="10.31" posLat="1.20" speedLat="-1.00"/>
            </lane>
            <lane id="-E9_3">
                <vehicle id="-E9__0__motorbike.0" pos="86.92" speed="10.85" posLat="0.00" speedLat="0.00"/>
            </lane>
        </edge>
        <edge id="E0">
            <lane id="E0_0"/>
            <lane id="E0_1"/>
            <lane id="E0_2">
                <vehicle id="E0__0__car.0" pos="16.59" speed="5.03" posLat="0.00" speedLat="0.00"/>
            </lane>
            <lane id="E0_3"/>
        </edge>
    </timestep>
    <timestep time="21.00">
        <edge id="-E2">
            <lane id="-E2_0"/>
            <lane id="-E2_1"/>
            <lane id="-E2_2">
                <vehicle id="-E2__0__motorbike.0" pos="60.52" speed="8.77" posLat="0.00" speedLat="0.00"/>
            </lane>
            <lane id="-E2_3"/>
        </edge>
        <edge id="-E4">
            <lane id="-E4_0"/>
            <lane id="-E4_1">
                <vehicle id="-E4__0__car.0" pos="135.76" speed="11.04" posLat="0.00" speedLat="0.00"/>
            </lane>
            <lane id="-E4_2">
                <vehicle id="-E4__0__car.1" pos="9.47" speed="2.44" posLat="0.00" speedLat="0.00"/>
            </lane>
            <lane id="-E4_3"/>
        </edge>
        <edge id="-E5">
            <lane id="-E5_0"/>
            <lane id="-E5_1"/>
            <lane id="-E5_2">
                <vehicle id="-E5__0__motorbike.0" pos="51.06" speed="10.32" posLat="0.00" speedLat="0.00"/>
            </lane>
            <lane id="-E5_3"/>
        </edge>
        <edge id="-E7">
            <lane id="-E7_0"/>
            <lane id="-E7_1">
                <vehicle id="-E7__0__motorbike.0" pos="102.93" speed="9.99" posLat="0.00" speedLat="0.00"/>
            </lane>
            <lane id="-E7_2">
                <vehicle id="-E7__0__car.0" pos="41.19" speed="8.80" posLat="0.00" speedLat="0.00"/>
            </lane>
            <lane id="-E7_3">
                <vehicle id="-E7__0__motorbike.1" pos="103.55" speed="10.97" posLat="0.00" speedLat="0.00"/>
            </lane>
        </edge>
        <edge id="-E8">
            <lane id="-E8_0"/>
            <lane id="-E8_1">
                <vehicle id="-E8__0__motorbike.1" pos="2.10" speed="0.00" posLat="0.00" speedLat="0.00"/>
            </lane>
            <lane id="-E8_2"/>
            <lane id="-E8_3">
                <vehicle id="-E8__0__motorbike.0" pos="3.40" speed="1.30" posLat="0.00" speedLat="0.00"/>
            </lane>
        </edge>
        <edge id="-E9">
            <lane id="-E9_0"/>
            <lane id="-E9_1"/>
            <lane id="-E9_2">
                <vehicle id="-E9__0__motorbike.1" pos="64.41" speed="10.52" posLat="0.20" speedLat="-1.00"/>
            </lane>
            <lane id="-E9_3">
                <vehicle id="-E9__0__motorbike.0" pos="97.56" speed="10.63" posLat="0.00" speedLat="0.00"/>
            </lane>
        </edge>
        <edge id="E0">
            <lane id="E0_0"/>
            <lane id="E0_1"/>
            <lane id="E0_2">
                <vehicle id="E0__0__car.0" pos="22.58" speed="6.00" posLat="1.00" speedLat="1.00"/>
            </lane>
            <lane id="E0_3"/>
        </edge>
    </timestep>
    <timestep time="22.00">
        <edge id=":J4_0">
            <lane id=":J4_0_0">
                <vehicle id="-E4__0__car.0" pos="0.66" speed="6.54" posLat="0.00" speedLat="0.00"/>
            </lane>
        </edge>
        <edge id="-E2">
            <lane id="-E2_0"/>
            <lane id="-E2_1"/>
            <lane id="-E2_2">
                <vehicle id="-E2__0__motorbike.0" pos="69.53" speed="9.01" posLat="0.00" speedLat="0.00"/>
            </lane>
            <lane id="-E2_3"/>
        </edge>
        <edge id="-E4">
            <lane id="-E4_0"/>
            <lane id="-E4_1"/>
            <lane id="-E4_2">
                <vehicle id="-E4__0__car.1" pos="12.82" speed="3.36" posLat="0.00" speedLat="0.00"/>
            </lane>
            <lane id="-E4_3"/>
        </edge>
        <edge id="-E5">
            <lane id="-E5_0"/>
            <lane id="-E5_1"/>
            <lane id="-E5_2">
                <vehicle id="-E5__0__motorbike.0" pos="61.81" speed="10.75" posLat="0.00" speedLat="0.00"/>
            </lane>
            <lane id="-E5_3"/>
        </edge>
        <edge id="-E7">