<?xml version="1.0" encoding="UTF-8"?>

<!-- generated on 2026-06-21 12:13:20 by Eclipse SUMO GUI Version 1.18.0
<configuration xmlns:xsi="http://www.w3.org/2001/XMLSchema-instance" xsi:noNamespaceSchemaLocation="http://sumo.dlr.de/xsd/sumoConfiguration.xsd">

    <input>
        <net-file value="./Scenario/3nodes/env/3nodes.net.xml"/>
        <route-files value="./Scenario/3nodes/env/../routes/vehicle.rou.xml"/>
        <additional-files value="./Scenario/3nodes/env/../add/tls.add.xml,./Scenario/3nodes/env/ ../add/e2.add.xml"/>
    </input>

    <output>
        <netstate-dump value="./Scenario/3nodes/env/../output/e2.netstate.xml"/>
        <netstate-dump.precision value="2"/>
        <summary-output value="./Scenario/3nodes/env/../output/e2_summary.output.xml"/>
        <tripinfo-output value="./Scenario/3nodes/env/../output/e2.tripinfo.xml"/>
    </output>

    <time>
        <begin value="0"/>
        <end value="504"/>
        <step-length value="1.0"/>
    </time>

    <processing>
        <lateral-resolution value="0.2"/>
    </processing>

</configuration>
-->

<tripinfos xmlns:xsi="http://www.w3.org/2001/XMLSchema-instance" xsi:noNamespaceSchemaLocation="http://sumo.dlr.de/xsd/tripinfo_file.xsd">
    <tripinfo id="-E7__0__motorbike.1" depart="7.00" departLane="-E7_3" departPos="2.10" departPosLat="0.00" departSpeed="0.00" departDelay="0.20" arrival="42.00" arrivalLane="E9_3" arrivalPos="137.53" arrivalPosLat="0.00" arrivalSpeed="10.82" duration="35.00" routeLength="305.08" waitingTime="0.00" waitingCount="0" stopTime="0.00" timeLoss="7.21" rerouteNo="0" devices="tripinfo_-E7__0__motorbike.1" vType="motorbike" speedFactor="1.01" vaporized=""/>
    <tripinfo id="-E8__0__motorbike.0" depart="20.00" departLane="-E8_3" departPos="2.10" departPosLat="0.00" departSpeed="0.00" departDelay="0.72" arrival="53.00" arrivalLane="E7_2" arrivalPos="144.88" arrivalPosLat="0.00" arrivalSpeed="10.76" duration="33.00" routeLength="295.65" waitingTime="0.00" waitingCount="0" stopTime="0.00" timeLoss="5.52" rerouteNo="0" devices="tripinfo_-E8__0__motorbike.0" vType="motorbike" speedFactor="1.09" vaporized=""/>
    <tripinfo id="-E4__0__car.0" depart="4.00" departLane="-E4_3" departPos="4.60" departPosLat="0.00" departSpeed="0.00" departDelay="0.42" arrival="55.00" arrivalLane="E2_3" arrivalPos="144.59" arrivalPosLat="0.00" arrivalSpeed="10.77" duration="51.00" routeLength="451.94" waitingTime="0.00" waitingCount="0" stopTime="0.00" timeLoss="9.50" rerouteNo="0" devices="tripinfo_-E4__0__car.0" vType="car" speedFactor="1.06" vaporized=""/>
    <tripinfo id="-E7__0__motorbike.0" depart="7.00" departLane="-E7_2" departPos="2.10" departPosLat="0.00" departSpeed="0.00" departDelay="0.46" arrival="57.00" arrivalLane="E4_1" arrivalPos="141.64" arrivalPosLat="0.00" arrivalSpeed="10.07" duration="50.00" routeLength="417.85" waitingTime="0.00" waitingCount="0" stopTime="0.00" timeLoss="7.90" rerouteNo="0" devices="tripinfo_-E7__0__motorbike.0" vType="motorbike" speedFactor="0.94" vaporized=""/>
    <tripinfo id="-E8__0__motorbike.2" depart="27.00" departLane="-E8_3" departPos="2.10" departPosLat="0.00" departSpeed="0.00" departDelay="0.05" arrival="73.00" arrivalLane="E4_1" arrivalPos="141.64" arrivalPosLat="0.00" arrivalSpeed="10.67" duration="46.00" routeLength="413.67" waitingTime="0.00" waitingCount="0" stopTime="0.00" timeLoss="6.94" rerouteNo="0" devices="tripinfo_-E8__0__motorbike.2" vType="motorbike" speedFactor="0.99" vaporized=""/>
    <tripinfo id="-E4__0__car.1" depart="18.00" departLane="-E4_2" departPos="4.60" departPosLat="0.00" departSpeed="0.00" departDelay="0.63" arrival="76.00" arrivalLane="E1_2" arrivalPos="153.25" arrivalPosLat="0.00" arrivalSpeed="9.37" duration="58.00" routeLength="463.50" waitingTime="0.00" waitingCount="0" stopTime="0.00" timeLoss="8.24" rerouteNo="0" devices="tripinfo_-E4__0__car.1" vType="car" speedFactor="0.86" vaporized=""/>
    <tripinfo id="-E9__0__motorbike.2" depart="42.00" departLane="-E9_2" departPos="2.10" departPosLat="0.00" departSpeed="0.00" departDelay="0.70" arrival="76.00" arrivalLane="E7_1" arrivalPos="144.88" arrivalPosLat="0.00" arrivalSpeed="10.37" duration="34.00" routeLength="289.44" waitingTime="0.00" waitingCount="0" stopTime="0.00" timeLoss="6.94" rerouteNo="0" devices="tripinfo_-E9__0__motorbike.2" vType="motorbike" speedFactor="1.16" vaporized=""/>
    <tripinfo id="-E8__0__motorbike.1" depart="21.00" departLane="-E8_1" departPos="2.10" departPosLat="0.00" departSpeed="0.00" departDelay="0.68" arrival="83.00" arrivalLane="-E0_1" arrivalPos="137.59" arrivalPosLat="0.00" arrivalSpeed="10.42" duration="62.00" routeLength="574.10" waitingTime="0.00" waitingCount="0" stopTime="0.00" timeLoss="9.05" rerouteNo="0" devices="tripinfo_-E8__0__motorbike.1" vType="motorbike" speedFactor="1.03" vaporized=""/>
    <tripinfo id="E0__0__motorbike.0" depart="48.00" departLane="E0_3" departPos="2.10" departPosLat="0.00" departSpeed="0.00" departDelay="0.08" arrival="84.00" arrivalLane="E1_2" arrivalPos="153.25" arrivalPosLat="0.00" arrivalSpeed="10.95" duration="36.00" routeLength="297.83" waitingTime="0.00" waitingCount="0" stopTime="0.00" timeLoss="7.78" rerouteNo="0" devices="tripinfo_E0__0__motorbike.0" vType="motorbike" speedFactor="1.01" vaporized=""/>
    <tripinfo id="E0__0__car.1" depart="53.00" departLane="E0_1" departPos="4.60" departPosLat="0.00" departSpeed="0.00" departDelay="0.87" arrival="87.00" arrivalLane="E1_2" arrivalPos="153.25" arrivalPosLat="0.00" arrivalSpeed="10.73" duration="34.00" routeLength="295.33" waitingTime="0.00" waitingCount="0" stopTime="0.00" timeLoss="5.81" rerouteNo="0" devices="tripinfo_E0__0__car.1" vType="car" speedFactor="0.97" vaporized=""/>
    <tripinfo id="-E5__0__motorbike.0" depart="12.00" departLane="-E5_2" departPos="2.10" departPosLat="0.00" departSpeed="0.00" departDelay="0.97" arrival="89.00" arrivalLane="E4_2" arrivalPos="141.64" arrivalPosLat="0.00" arrivalSpeed="10.39" duration="77.00" routeLength="299.03" waitingTime="38.00" waitingCount="1" stopTime="0.00" timeLoss="49.45" rerouteNo="0" devices="tripinfo_-E5__0__motorbike.0" vType="motorbike" speedFactor="1.05" vaporized=""/>
    <tripinfo id="-E5__0__motorbike.1" depart="26.00" departLane="-E5_1" departPos="2.10" departPosLat="0.00" departSpeed="0.00" departDelay="0.10" arrival="90.00" arrivalLane="E4_2" arrivalPos="141.64" arrivalPosLat="-0.15" arrivalSpeed="10.77" duration="64.00" routeLength="299.03" waitingTime="25.00" waitingCount="1" stopTime="0.00" timeLoss="36.51" rerouteNo="0" devices="tripinfo_-E5__0__motorbike.1" vType="motorbike" speedFactor="1.05" vaporized=""/>
    <tripinfo id="-E5__0__motorbike.2" depart="41.00" departLane="-E5_1" departPos="2.10" departPosLat="0.00" departSpeed="0.00" departDelay="0.15" arrival="91.00" arrivalLane="E4_2" arrivalPos="141.64" arrivalPosLat="0.00" arrivalSpeed="10.10" duration="50.00" routeLength="299.03" waitingTime="11.00" waitingCount="1" stopTime="0.00" timeLoss="21.21" rerouteNo="0" devices="tripinfo_-E5__0__motorbike.2" vType="motorbike" speedFactor="0.94" vaporized=""/>
    <tripinfo id="-E2__0__motorbike.0" depart="11.00" departLane="-E2_2" departPos="2.10" departPosLat="0.00" departSpeed="0.00" departDelay="0.12" arrival="92.00" arrivalLane="-E0_2" arrivalPos="137.59" arrivalPosLat="0.00" arrivalSpeed="9.22" duration="81.00" routeLength="308.00" waitingTime="37.00" waitingCount="1" stopTime="0.00" timeLoss="46.67" rerouteNo="0" devices="tripinfo_-E2__0__motorbike.0" vType="motorbike" speedFactor="0.83" vaporized=""/>
    <tripinfo id="-E2__0__car.0" depart="29.00" departLane="-E2_1" departPos="4.60" departPosLat="0.00" departSpeed="0.00" departDelay="0.21" arrival="93.00" arrivalLane="E1_3" arrivalPos="153.25" arrivalPosLat="0.00" arrivalSpeed="9.64" duration="64.00" routeLength="318.38" waitingTime="20.00" waitingCount="1" stopTime="0.00" timeLoss="32.48" rerouteNo="0" devices="tripinfo_-E2__0__car.0" vType="car" speedFactor="0.93" vaporized=""/>
    <tripinfo id="-E2__0__motorbike.1" depart="55.00" departLane="-E2_1" departPos="2.10" departPosLat="0.00" departSpeed="0.00" departDelay="0.06" arrival="93.00" arrivalLane="-E0_2" arrivalPos="137.59" arrivalPosLat="0.00" arrivalSpeed="9.82" duration="38.00" routeLength="308.00" waitingTime="0.00" waitingCount="0" stopTime="0.00" timeLoss="6.17" rerouteNo="0" devices="tripinfo_-E2__0__motorbike.1" vType="motorbike" speedFactor="0.89" vaporized=""/>
    <tripinfo id="-E5__1__car.0" depart="68.00" departLane="-E5_2" departPos="4.60" departPosLat="0.00" departSpeed="0.00" departDelay="0.05" arrival="114.00" arrivalLane="E9_2" arrivalPos="137.53" arrivalPosLat="0.00" arrivalSpeed="10.71" duration="46.00" routeLength="416.02" waitingTime="0.00" waitingCount="0" stopTime="0.00" timeLoss="7.17" rerouteNo="0" devices="tripinfo_-E5__1__car.0" vType="car" speedFactor="1.13" vaporized=""/>
    <tripinfo id="-E9__0__motorbike.0" depart="8.00" departLane="-E9_1" departPos="2.10" departPosLat="0.00" departSpeed="0.00" departDelay="0.29" arrival="123.00" arrivalLane="E8_3" arrivalPos="125.44" arrivalPosLat="0.00" arrivalSpeed="10.50" duration="115.00" routeLength="285.67" waitingTime="78.00" waitingCount="1" stopTime="0.00" timeLoss="88.38" rerouteNo="0" devices="tripinfo_-E9__0__motorbike.0" vType="motorbike" speedFactor="1.08" vaporized=""/>
    <tripinfo id="-E4__0__motorbike.0" depart="45.00" departLane="-E4_2" departPos="2.10" departPosLat="0.00" departSpeed="0.00" departDelay="0.54" arrival="124.00" arrivalLane="E5_2" arrivalPos="132.02" arrivalPosLat="0.00" arrivalSpeed="10.76" duration="79.00" routeLength="299.01" waitingTime="41.00" waitingCount="1" stopTime="0.00" timeLoss="51.75" rerouteNo="0" devices="tripinfo_-E4__0__motorbike.0" vType="motorbike" speedFactor="1.02" vaporized=""/>
    <tripinfo id="-E9__1__motorbike.0" depart="87.00" departLane="-E9_3" departPos="2.10" departPosLat="0.00" departSpeed="0.00" departDelay="0.77" arrival="125.00" arrivalLane="E7_1" arrivalPos="144.88" arrivalPosLat="0.00" arrivalSpeed="10.37" duration="38.00" routeLength="289.44" waitingTime="0.00" waitingCount="0" stopTime="0.00" timeLoss="10.76" rerouteNo="0" devices="tripinfo_-E9__1__motorbike.0" vType="motorbike" speedFactor="1.17" vaporized=""/>
    <tripinfo id="-E2__1__motorbike.1" depart="77.00" departLane="-E2_2" departPos="2.10" departPosLat="0.00" departSpeed="0.00" departDelay="0.25" arrival="127.00" arrivalLane="E5_1" arrivalPos="132.02" arrivalPosLat="0.00" arrivalSpeed="11.04" duration="50.00" routeLength="429.34" waitingTime="0.00" waitingCount="0" stopTime="0.00" timeLoss="10.55" rerouteNo="0" devices="tripinfo_-E2__1__motorbike.1" vType="motorbike" speedFactor="1.18" vaporized=""/>
    <tripinfo id="E0__1__motorbike.0" depart="96.00" departLane="E0_3" departPos="2.10" departPosLat="0.00" departSpeed="0.00" departDelay="0.09" arrival="129.00" arrivalLane="E2_2" arrivalPos="144.59" arrivalPosLat="0.00" arrivalSpeed="10.71" duration="33.00" routeLength="307.97" waitingTime="0.00" waitingCount="0" stopTime="0.00" timeLoss="4.99" rerouteNo="0" devices="tripinfo_E0__1__motorbike.0" vType="motorbike" speedFactor="1.10" vaporized=""/>
    <tripinfo id="-E9__0__motorbike.1" depart="11.00" departLane="-E9_3" departPos="2.10" departPosLat="0.00" departSpeed="0.00" departDelay="0.18" arrival="139.00" arrivalLane="E4_1" arrivalPos="141.64" arrivalPosLat="0.00" arrivalSpeed="11.02" duration="128.00" routeLength="428.43" waitingTime="75.00" waitingCount="1" stopTime="0.00" timeLoss="88.70" rerouteNo="0" devices="tripinfo_-E9__0__motorbike.1" vType="motorbike" speedFactor="1.03" vaporized=""/>
    <tripinfo id="E0__0__car.0" depart="16.00" departLane="E0_2" departPos="4.60" departPosLat="0.00" departSpeed="0.00" departDelay="0.07" arrival="141.00" arrivalLane="E5_1" arrivalPos="132.02" arrivalPosLat="0.00" arrivalSpeed="9.99" duration="125.00" routeLength="435.94" waitingTime="70.00" waitingCount="1" stopTime="0.00" timeLoss="81.76" rerouteNo="0" devices="tripinfo_E0__0__car.0" vType="car" speedFactor="0.94" vaporized=""/>
    <tripinfo id="-E9__1__car.0" depart="87.00" departLane="-E9_2" departPos="4.60" departPosLat="0.00" departSpeed="0.00" departDelay="0.60" arrival="141.00" arrivalLane="E4_1" arrivalPos="141.64" arrivalPosLat="0.00" arrivalSpeed="10.56" duration="54.00" routeLength="425.93" waitingTime="0.00" waitingCount="0" stopTime="0.00" timeLoss="14.62" rerouteNo="0" devices="tripinfo_-E9__1__car.0" vType="car" speedFactor="0.99" vaporized=""/>
    <tripinfo id="-E8__1__motorbike.2" depart="109.00" departLane="-E8_1" departPos="2.10" departPosLat="0.00" departSpeed="0.00" departDelay="0.86" arrival="141.00" arrivalLane="E9_1" arrivalPos="137.53" arrivalPosLat="0.00" arrivalSpeed="10.56" duration="32.00" routeLength="269.96" waitingTime="0.00" waitingCount="0" stopTime="0.00" timeLoss="7.08" rerouteNo="0" devices="tripinfo_-E8__1__motorbike.2" vType="motorbike" speedFactor="1.04" vaporized=""/>
    <tripinfo id="-E1__1__car.1" depart="107.00" departLane="-E1_3" departPos="4.60" departPosLat="0.00" departSpeed="0.00" departDelay="0.98" arrival="144.00" arrivalLane="E2_1" arrivalPos="144.59" arrivalPosLat="0.00" arrivalSpeed="10.34" duration="37.00" routeLength="303.07" waitingTime="0.00" waitingCount="0" stopTime="0.00" timeLoss="7.55" rerouteNo="0" devices="tripinfo_-E1__1__car.1" vType="car" speedFactor="0.96" vaporized=""/>
    <tripinfo id="E0__1__car.0" depart="117.00" departLane="E0_1" departPos="4.60" departPosLat="0.00" departSpeed="0.00" departDelay="0.85" arrival="154.00" arrivalLane="E1_2" arrivalPos="153.25" arrivalPosLat="0.00" arrivalSpeed="9.27" duration="37.00" routeLength="295.33" waitingTime="0.00" waitingCount="0" stopTime="0.00" timeLoss="5.97" rerouteNo="0" devices="tripinfo_E0__1__car.0" vType="car" speedFactor="0.90" vaporized=""/>
    <tripinfo id="-E7__0__car.0" depart="13.00" departLane="-E7_2" departPos="4.60" departPosLat="0.00" departSpeed="0.00" departDelay="0.68" arrival="159.00" arrivalLane="E8_2" arrivalPos="125.44" arrivalPosLat="0.00" arrivalSpeed="9.79" duration="146.00" routeLength="293.48" waitingTime="105.00" waitingCount="1" stopTime="0.00" timeLoss="116.15" rerouteNo="0" devices="tripinfo_-E7__0__car.0" vType="car" speedFactor="0.89" vaporized=""/>
    <tripinfo id="-E7__1__motorbike.1" depart="89.00" departLane="-E7_3" departPos="2.10" departPosLat="0.00" departSpeed="0.00" departDelay="0.71" arrival="159.00" arrivalLane="E9_3" arrivalPos="137.53" arrivalPosLat="0.00" arrivalSpeed="10.38" duration="70.00" routeLength="305.08" waitingTime="31.00" waitingCount="1" stopTime="0.00" timeLoss="41.73" rerouteNo="0" devices="tripinfo_-E7__1__motorbike.1" vType="motorbike" speedFactor="1.02" vaporized=""/>
    <tripinfo id="E0__2__car.0" depart="125.00" departLane="E0_3" departPos="4.60" departPosLat="0.00" departSpeed="0.00" departDelay="0.46" arrival="159.00" arrivalLane="E1_1" arrivalPos="153.25" arrivalPosLat="0.00" arrivalSpeed="10.68" duration="34.00" routeLength="295.33" waitingTime="0.00" waitingCount="0" stopTime="0.00" timeLoss="6.47" rerouteNo="0" devices="tripinfo_E0__2__car.0" vType="car" speedFactor="1.17" vaporized=""/>
    <tripinfo id="-E1__0__motorbike.2" depart="41.00" departLane="-E1_3" departPos="2.10" departPosLat="0.00" departSpeed="0.00" departDelay="0.46" arrival="160.00" arrivalLane="-E0_3" arrivalPos="137.59" arrivalPosLat="0.00" arrivalSpeed="9.99" duration="119.00" routeLength="313.52" waitingTime="78.00" waitingCount="1" stopTime="0.00" timeLoss="88.68" rerouteNo="0" devices="tripinfo_-E1__0__motorbike.2" vType="motorbike" speedFactor="0.94" vaporized=""/>
    <tripinfo id="-E2__1__motorbike.0" depart="61.00" departLane="-E2_3" departPos="2.10" departPosLat="0.00" departSpeed="0.00" departDelay="0.16" arrival="162.00" arrivalLane="E4_3" arrivalPos="141.64" arrivalPosLat="0.00" arrivalSpeed="8.68" duration="101.00" routeLength="454.23" waitingTime="39.00" waitingCount="1" stopTime="0.00" timeLoss="49.96" rerouteNo="0" devices="tripinfo_-E2__1__motorbike.0" vType="motorbike" speedFactor="0.83" vaporized=""/>
    <tripinfo id="-E4__1__motorbike.0" depart="112.00" departLane="-E4_2" departPos="2.10" departPosLat="0.00" departSpeed="0.00" departDelay="0.48" arrival="162.00" arrivalLane="-E0_1" arrivalPos="137.59" arrivalPosLat="0.00" arrivalSpeed="10.62" duration="50.00" routeLength="432.61" waitingTime="0.00" waitingCount="0" stopTime="0.00" timeLoss="9.57" rerouteNo="0" devices="tripinfo_-E4__1__motorbike.0" vType="motorbike" speedFactor="1.09" vaporized=""/>
    <tripinfo id="-E9__2__motorbike.1" depart="134.00" departLane="-E9_2" departPos="2.10" departPosLat="0.00" departSpeed="0.00" departDelay="0.33" arrival="167.00" arrivalLane="E7_1" arrivalPos="144.88" arrivalPosLat="0.00" arrivalSpeed="10.44" duration="33.00" routeLength="289.44" waitingTime="0.00" waitingCount="0" stopTime="0.00" timeLoss="5.70" rerouteNo="0" devices="tripinfo_-E9__2__motorbike.1" vType="motorbike" speedFactor="1.00" vaporized=""/>
    <tripinfo id="-E9__2__car.0" depart="141.00" departLane="-E9_1" departPos="4.60" departPosLat="0.00" departSpeed="0.00" departDelay="0.50" arrival="174.00" arrivalLane="E7_1" arrivalPos="144.88" arrivalPosLat="0.00" arrivalSpeed="10.52" duration="33.00" routeLength="286.94" waitingTime="0.00" waitingCount="0" stopTime="0.00" timeLoss="6.02" rerouteNo="0" devices="tripinfo_-E9__2__car.0" vType="car" speedFactor="1.08" vaporized=""/>
    <tripinfo id="-E1__2__motorbike.0" depart="121.00" departLane="-E1_2" departPos="2.10" departPosLat="0.00" departSpeed="0.00" departDelay="0.97" arrival="183.00" arrivalLane="E5_1" arrivalPos="132.02" arrivalPosLat="0.00" arrivalSpeed="9.21" duration="62.00" routeLength="456.59" waitingTime="0.00" waitingCount="0" stopTime="0.00" timeLoss="13.57" rerouteNo="0" devices="tripinfo_-E1__2__motorbike.0" vType="motorbike" speedFactor="0.88" vaporized=""/>
    <tripinfo id="-E5__2__motorbike.0" depart="139.00" departLane="-E5_3" departPos="2.10" departPosLat="0.00" departSpeed="0.00" departDelay="0.16" arrival="184.00" arrivalLane="E8_1" arrivalPos="125.44" arrivalPosLat="0.00" arrivalSpeed="10.18" duration="45.00" routeLength="388.49" waitingTime="0.00" waitingCount="0" stopTime="0.00" timeLoss="7.68" rerouteNo="0" devices="tripinfo_-E5__2__motorbike.0" vType="motorbike" speedFactor="0.97" vaporized=""/>
    <tripinfo id="-E7__2__motorbike.0" depart="136.00" departLane="-E7_3" departPos="2.10" departPosLat="0.00" departSpeed="0.00" departDelay="0.41" arrival="185.00" arrivalLane="E4_1" arrivalPos="141.64" arrivalPosLat="0.00" arrivalSpeed="10.69" duration="49.00" routeLength="417.85" waitingTime="0.00" waitingCount="0" stopTime="0.00" timeLoss="10.11" rerouteNo="0" devices="tripinfo_-E7__2__motorbike.0" vType="motorbike" speedFactor="1.14" vaporized=""/>
    <tripinfo id="-E1__0__motorbike.1" depart="37.00" departLane="-E1_2" departPos="2.10" departPosLat="0.00" departSpeed="0.00" departDelay="0.21" arrival="192.00" arrivalLane="E8_1" arrivalPos="125.44" arrivalPosLat="0.00" arrivalSpeed="9.03" duration="155.00" routeLength="592.10" waitingTime="82.00" waitingCount="1" stopTime="0.00" timeLoss="92.87" rerouteNo="0" devices="tripinfo_-E1__0__motorbike.1" vType="motorbike" speedFactor="0.88" vaporized=""/>
    <tripinfo id="-E1__1__motorbike.0" depart="66.00" departLane="-E1_2" departPos="2.10" departPosLat="0.00" departSpeed="0.00" departDelay="0.32" arrival="193.00" arrivalLane="E8_2" arrivalPos="125.44" arrivalPosLat="0.00" arrivalSpeed="9.45" duration="127.00" routeLength="592.10" waitingTime="53.00" waitingCount="1" stopTime="0.00" timeLoss="67.52" rerouteNo="0" devices="tripinfo_-E1__1__motorbike.0" vType="motorbike" speedFactor="0.92" vaporized=""/>
    <tripinfo id="-E9__1__motorbike.1" depart="100.00" departLane="-E9_2" departPos="2.10" departPosLat="0.00" departSpeed="0.00" departDelay="0.85" arrival="194.00" arrivalLane="E5_3" arrivalPos="132.02" arrivalPosLat="0.00" arrivalSpeed="9.81" duration="94.00" routeLength="434.06" waitingTime="42.00" waitingCount="1" stopTime="0.00" timeLoss="50.39" rerouteNo="0" devices="tripinfo_-E9__1__motorbike.1" vType="motorbike" speedFactor="0.90" vaporized=""/>
    <tripinfo id="-E4__1__motorbike.1" depart="114.00" departLane="-E4_2" departPos="2.10" departPosLat="0.00" departSpeed="0.00" departDelay="0.55" arrival="195.00" arrivalLane="E2_3" arrivalPos="144.59" arrivalPosLat="-0.45" arrivalSpeed="10.69" duration="81.00" routeLength="454.44" waitingTime="22.00" waitingCount="1" stopTime="0.00" timeLoss="38.73" rerouteNo="0" devices="tripinfo_-E4__1__motorbike.1" vType="motorbike" speedFactor="1.00" vaporized=""/>
    <tripinfo id="-E4__2__motorbike.0" depart="132.00" departLane="-E4_2" departPos="2.10" departPosLat="0.00" departSpeed="0.00" departDelay="0.74" arrival="195.00" arrivalLane="E2_3" arrivalPos="144.59" arrivalPosLat="1.05" arrivalSpeed="10.55" duration="63.00" routeLength="454.44" waitingTime="7.00" waitingCount="1" stopTime="0.00" timeLoss="21.03" rerouteNo="0" devices="tripinfo_-E4__2__motorbike.0" vType="motorbike" speedFactor="1.10" vaporized=""/>
    <tripinfo id="-E7__1__car.0" depart="104.00" departLane="-E7_2" departPos="4.60" departPosLat="0.00" departSpeed="0.00" departDelay="0.81" arrival="196.00" arrivalLane="E5_3" arrivalPos="132.02" arrivalPosLat="0.00" arrivalSpeed="10.43" duration="92.00" routeLength="420.98" waitingTime="38.00" waitingCount="1" stopTime="0.00" timeLoss="53.37" rerouteNo="0" devices="tripinfo_-E7__1__car.0" vType="car" speedFactor="1.03" vaporized=""/>
    <tripinfo id="-E8__2__motorbike.0" depart="122.00" departLane="-E8_1" departPos="2.10" departPosLat="0.00" departSpeed="0.00" departDelay="0.46" arrival="197.00" arrivalLane="E7_2" arrivalPos="144.88" arrivalPosLat="0.00" arrivalSpeed="8.79" duration="75.00" routeLength="295.65" waitingTime="32.00" waitingCount="1" stopTime="0.00" timeLoss="43.27" rerouteNo="0" devices="tripinfo_-E8__2__motorbike.0" vType="motorbike" speedFactor="0.85" vaporized=""/>
    <tripinfo id="-E4__1__car.0" depart="65.00" departLane="-E4_1" departPos="4.60" departPosLat="0.00" departSpeed="0.00" departDelay="0.84" arrival="198.00" arrivalLane="E1_2" arrivalPos="153.25" arrivalPosLat="0.00" arrivalSpeed="9.59" duration="133.00" routeLength="463.50" waitingTime="70.00" waitingCount="1" stopTime="0.00" timeLoss="83.84" rerouteNo="0" devices="tripinfo_-E4__1__car.0" vType="car" speedFactor="0.87" vaporized=""/>
    <tripinfo id="-E8__1__motorbike.0" depart="86.00" departLane="-E8_3" departPos="2.10" departPosLat="0.00" departSpeed="0.00" departDelay="0.78" arrival="208.00" arrivalLane="E4_1" arrivalPos="141.64" arrivalPosLat="0.00" arrivalSpeed="10.59" duration="122.00" routeLength="413.67" waitingTime="71.00" waitingCount="1" stopTime="0.00" timeLoss="83.32" rerouteNo="0" devices="tripinfo_-E8__1__motorbike.0" vType="motorbike" speedFactor="1.01" vaporized=""/>
    <tripinfo id="-E7__1__motorbike.0" depart="66.00" departLane="-E7_3" departPos="2.10" departPosLat="0.00" departSpeed="0.00" departDelay="0.01" arrival="211.00" arrivalLane="-E0_1" arrivalPos="137.59" arrivalPosLat="0.00" arrivalSpeed="9.98" duration="145.00" routeLength="578.28" waitingTime="74.00" waitingCount="1" stopTime="0.00" timeLoss="88.22" rerouteNo="0" devices="tripinfo_-E7__1__motorbike.0" vType="motorbike" speedFactor="0.95" vaporized=""/>
    <tripinfo id="-E8__3__motorbike.0" depart="181.00" departLane="-E8_3" departPos="2.10" departPosLat="0.00" departSpeed="0.00" departDelay="0.81" arrival="212.00" arrivalLane="E9_1" arrivalPos="137.53" arrivalPosLat="0.00" arrivalSpeed="10.53" duration="31.00" routeLength="269.96" waitingTime="0.00" waitingCount="0" stopTime="0.00" timeLoss="5.97" rerouteNo="0" devices="tripinfo_-E8__3__motorbike.0" vType="motorbike" speedFactor="1.06" vaporized=""/>
    <tripinfo id="-E8__2__car.0" depart="125.00" departLane="-E8_3" departPos="4.60" departPosLat="0.00" departSpeed="0.00" departDelay="1.57" arrival="214.00" arrivalLane="E4_1" arrivalPos="141.64" arrivalPosLat="0.00" arrivalSpeed="8.80" duration="89.00" routeLength="411.17" waitingTime="32.00" waitingCount="1" stopTime="0.00" timeLoss="44.51" rerouteNo="0" devices="tripinfo_-E8__2__car.0" vType="car" speedFactor="0.85" vaporized=""/>
    <tripinfo id="-E8__2__car.1" depart="137.00" departLane="-E8_2" departPos="4.60" departPosLat="0.00" departSpeed="0.00" departDelay="0.54" arrival="216.00" arrivalLane="E4_1" arrivalPos="141.64" arrivalPosLat="0.00" arrivalSpeed="10.61" duration="79.00" routeLength="411.17" waitingTime="22.00" waitingCount="1" stopTime="0.00" timeLoss="40.50" rerouteNo="0" devices="tripinfo_-E8__2__car.1" vType="car" speedFactor="1.02" vaporized=""/>
    <tripinfo id="E0__2__motorbike.1" depart="180.00" departLane="E0_1" departPos="2.10" departPosLat="0.00" departSpeed="0.00" departDelay="0.22" arrival="216.00" arrivalLane="E1_2" arrivalPos="153.25" arrivalPosLat="0.00" arrivalSpeed="10.14" duration="36.00" routeLength="297.83" waitingTime="0.00" waitingCount="0" stopTime="0.00" timeLoss="7.11" rerouteNo="0" devices="tripinfo_E0__2__motorbike.1" vType="motorbike" speedFactor="0.97" vaporized=""/>
    <tripinfo id="-E7__2__motorbike.2" depart="166.00" departLane="-E7_2" departPos="2.10" departPosLat="0.00" departSpeed="0.00" departDelay="0.10" arrival="219.00" arrivalLane="E4_1" arrivalPos="141.64" arrivalPosLat="0.00" arrivalSpeed="9.13" duration="53.00" routeLength="417.85" waitingTime="0.00" waitingCount="0" stopTime="0.00" timeLoss="8.07" rerouteNo="0" devices="tripinfo_-E7__2__motorbike.2" vType="motorbike" speedFactor="0.88" vaporized=""/>
    <tripinfo id="-E2__2__motorbike.1" depart="175.00" departLane="-E2_3" departPos="2.10" departPosLat="0.00" departSpeed="0.00" departDelay="0.48" arrival="226.00" arrivalLane="E5_1" arrivalPos="132.02" arrivalPosLat="0.00" arrivalSpeed="10.57" duration="51.00" routeLength="429.34" waitingTime="0.00" waitingCount="0" stopTime="0.00" timeLoss="9.99" rerouteNo="0" devices="tripinfo_-E2__2__motorbike.1" vType="motorbike" speedFactor="1.02" vaporized=""/>
    <tripinfo id="-E1__3__motorbike.0" depart="191.00" departLane="-E1_2" departPos="2.10" departPosLat="0.00" departSpeed="0.00" departDelay="0.83" arrival="227.00" arrivalLane="E2_1" arrivalPos="144.59" arrivalPosLat="0.00" arrivalSpeed="10.85" duration="36.00" routeLength="305.57" waitingTime="0.00" waitingCount="0" stopTime="0.00" timeLoss="6.77" rerouteNo="0" devices="tripinfo_-E1__3__motorbike.0" vType="motorbike" speedFactor="0.98" vaporized=""/>
    <tripinfo id="-E5__1__car.1" depart="94.00" departLane="-E5_2" departPos="4.60" departPosLat="0.00" departSpeed="0.00" departDelay="0.34" arrival="229.00" arrivalLane="E9_2" arrivalPos="137.53" arrivalPosLat="0.00" arrivalSpeed="10.87" duration="135.00" routeLength="416.02" waitingTime="81.00" waitingCount="1" stopTime="0.00" timeLoss="97.16" rerouteNo="0" devices="tripinfo_-E5__1__car.1" vType="car" speedFactor="1.18" vaporized=""/>
    <tripinfo id="-E5__2__car.0" depart="150.00" departLane="-E5_3" departPos="4.60" departPosLat="0.00" departSpeed="0.00" departDelay="0.17" arrival="230.00" arrivalLane="E4_2" arrivalPos="141.64" arrivalPosLat="0.00" arrivalSpeed="10.75" duration="80.00" routeLength="296.53" waitingTime="40.00" waitingCount="1" stopTime="0.00" timeLoss="53.19" rerouteNo="0" devices="tripinfo_-E5__2__car.0" vType="car" speedFactor="1.12" vaporized=""/>
    <tripinfo id="-E2__1__car.0" depart="84.00" departLane="-E2_1" departPos="4.60" departPosLat="0.00" departSpeed="0.00" departDelay="0.65" arrival="231.00" arrivalLane="E1_3" arrivalPos="153.25" arrivalPosLat="0.00" arrivalSpeed="10.68" duration="147.00" routeLength="318.38" waitingTime="106.00" waitingCount="1" stopTime="0.00" timeLoss="117.53" rerouteNo="0" devices="tripinfo_-E2__1__car.0" vType="car" speedFactor="1.15" vaporized=""/>
    <tripinfo id="-E5__1__motorbike.0" depart="107.00" departLane="-E5_2" departPos="2.10" departPosLat="0.00" departSpeed="0.00" departDelay="0.98" arrival="231.00" arrivalLane="E9_2" arrivalPos="137.53" arrivalPosLat="0.00" arrivalSpeed="10.80" duration="124.00" routeLength="418.52" waitingTime="72.00" waitingCount="1" stopTime="0.00" timeLoss="85.59" rerouteNo="0" devices="tripinfo_-E5__1__motorbike.0" vType="motorbike" speedFactor="1.09" vaporized=""/>
    <tripinfo id="-E2__2__motorbike.0" depart="130.00" departLane="-E2_3" departPos="2.10" departPosLat="0.00" departSpeed="0.00" departDelay="0.69" arrival="232.00" arrivalLane="E1_3" arrivalPos="153.25" arrivalPosLat="0.00" arrivalSpeed="10.86" duration="102.00" routeLength="320.88" waitingTime="62.00" waitingCount="1" stopTime="0.00" timeLoss="72.77" rerouteNo="0" devices="tripinfo_-E2__2__motorbike.0" vType="motorbike" speedFactor="1.02" vaporized=""/>
    <tripinfo id="E0__3__motorbike.0" depart="197.00" departLane="E0_3" departPos="2.10" departPosLat="0.00" departSpeed="0.00" departDelay="0.27" arrival="232.00" arrivalLane="E1_1" arrivalPos="153.25" arrivalPosLat="0.00" arrivalSpeed="11.07" duration="35.00" routeLength="297.83" waitingTime="0.00" waitingCount="0" stopTime="0.00" timeLoss="7.35" rerouteNo="0" devices="tripinfo_E0__3__motorbike.0" vType="motorbike" speedFactor="1.03" vaporized=""/>
    <tripinfo id="-E1__0__motorbike.0" depart="27.00" departLane="-E1_1" departPos="2.10" departPosLat="0.00" departSpeed="0.00" departDelay="0.30" arrival="233.00" arrivalLane="E9_1" arrivalPos="137.53" arrivalPosLat="0.00" arrivalSpeed="10.46" duration="206.00" routeLength="622.13" waitingTime="130.00" waitingCount="2" stopTime="0.00" timeLoss="149.39" rerouteNo="0" devices="tripinfo_-E1__0__motorbike.0" vType="motorbike" speedFactor="1.12" vaporized=""/>